  python dir          : /gpfs/pace1/project/chbe-medford/medford-share/gits/frozen/ben_espresso_8_24_2017/espresso
  espresso dir        : /gpfs/pace1/project/chbe-medford/medford-share/builds/espresso/5.1.r11289-pybeef/intel-17.0+mvapich2-2.2+mkl-11.3/espresso-5.1.r11289-pybeef/bin
  pseudo dir          : /gpfs/pace1/project/chbe-medford/medford-share/data/pseudos/SSSP_eff_PBE
  ase-espresso py git : GITVERSION



     Program PWSCF v.5.1rc2 starts on  4Feb2018 at 11: 5:24 

     This program is part of the open-source Quantum ESPRESSO suite
     for quantum simulation of materials; please cite
         "P. Giannozzi et al., J. Phys.:Condens. Matter 21 395502 (2009);
          URL http://www.quantum-espresso.org", 
     in publications or presentations arising from this work. More details at
     http://www.quantum-espresso.org/quote

     Parallel version (MPI), running on     1 processors
     Reading input from pw.inp
     Message from routine read_cards :
     DEPRECATED: no units specified in CELL_PARAMETERS card

     Current dimensions of program PWSCF are:
     Max number of different atomic species (ntypx) = 10
     Max number of k-points (npk) =  40000
     Max angular momentum in pseudopotentials (lmaxx) =  3
     Presently no symmetry can be used with electric field


     **************************************************************************
     Initializing libbeef V0.1.2 with the BEEF-vdW functional.
     Citation: Wellendorff et al., PRB 85, 235149 (2012).
     **************************************************************************


     IMPORTANT: XC functional enforced from input :
     Exchange-correlation      = BEEF-VDW ( 1  4 27 13 2)
     Any further DFT definition will be discarded
     Please, verify this is what you really want


     Subspace diagonalization in iterative solution of the eigenvalue problem:
     a serial algorithm will be used

 
     G-vector sticks info
     --------------------
     sticks:   dense  smooth     PW     G-vecs:    dense   smooth      PW
     Sum        3275    1317    379               566857   143421   21985
 
     Generating pointlists ...
     new r_m :   0.4125 (alat units)  0.7795 (a.u.) for type    1
     new r_m :   0.4125 (alat units)  0.7795 (a.u.) for type    2
     new r_m :   0.4125 (alat units)  0.7795 (a.u.) for type    3
  python dir          : /gpfs/pace1/project/chbe-medford/medford-share/gits/frozen/ben_espresso_8_24_2017/espresso
  espresso dir        : /nv/hp22/amedford6/medford-shared/builds/espresso/5.1.r11289-pybeef/intel-16.0+mvapich2-2.2+mkl-11.3/espresso-5.1.r11289-pybeef/bin
  pseudo dir          : /gpfs/pace1/project/chbe-medford/medford-share/data/pseudos/SSSP_eff_PBE
  ase-espresso py git : GITVERSION



     Program PWSCF v.5.1rc2 starts on  4Feb2018 at 11: 5:55 

     This program is part of the open-source Quantum ESPRESSO suite
     for quantum simulation of materials; please cite
         "P. Giannozzi et al., J. Phys.:Condens. Matter 21 395502 (2009);
          URL http://www.quantum-espresso.org", 
     in publications or presentations arising from this work. More details at
     http://www.quantum-espresso.org/quote

     Parallel version (MPI), running on    14 processors
     R & G space division:  proc/nbgrp/npool/nimage =      14
     Reading input from pw.inp
     Message from routine read_cards :
     DEPRECATED: no units specified in CELL_PARAMETERS card

     Current dimensions of program PWSCF are:
     Max number of different atomic species (ntypx) = 10
     Max number of k-points (npk) =  40000
     Max angular momentum in pseudopotentials (lmaxx) =  3
     Presently no symmetry can be used with electric field


     **************************************************************************
     Initializing libbeef V0.1.2 with the BEEF-vdW functional.
     Citation: Wellendorff et al., PRB 85, 235149 (2012).
     **************************************************************************


     IMPORTANT: XC functional enforced from input :
     Exchange-correlation      = BEEF-VDW ( 1  4 27 13 2)
     Any further DFT definition will be discarded
     Please, verify this is what you really want


     Subspace diagonalization in iterative solution of the eigenvalue problem:
     a serial algorithm will be used

 
     Parallelization info
     --------------------
     sticks:   dense  smooth     PW     G-vecs:    dense   smooth      PW
     Min         233      94     27                40481    10226    1565
     Max         234      95     28                40494    10264    1575
     Sum        3275    1317    379               566857   143421   21985
 
     Generating pointlists ...
     new r_m :   0.4125 (alat units)  0.7795 (a.u.) for type    1
     new r_m :   0.4125 (alat units)  0.7795 (a.u.) for type    2
     new r_m :   0.4125 (alat units)  0.7795 (a.u.) for type    3


     bravais-lattice index     =            0
     lattice parameter (alat)  =       1.8897  a.u.
     unit-cell volume          =    6658.9804 (a.u.)^3
     number of atoms/cell      =           48
     number of atomic types    =            3
     number of electrons       =       384.00
     number of Kohn-Sham states=          202
     kinetic-energy cutoff     =      29.3995  Ry
     charge density cutoff     =     293.9946  Ry
     convergence threshold     =      7.3E-08
     mixing beta               =       0.0500
     number of iterations used =            8  plain     mixing
     Exchange-correlation      = BEEF-VDW ( 1  4 27 13 2)
     nstep                     =           50


     celldm(1)=   1.889726  celldm(2)=   0.000000  celldm(3)=   0.000000
     celldm(4)=   0.000000  celldm(5)=   0.000000  celldm(6)=   0.000000

     crystal axes: (cart. coord. in units of alat)
               a(1) = (   6.579727   0.000000   0.000000 )  
               a(2) = (  -0.000775   5.961596   0.000000 )  
               a(3) = (   0.000000   0.000000  25.155947 )  

     reciprocal axes: (cart. coord. in units 2 pi/alat)
               b(1) = (  0.151982  0.000020  0.000000 )  
               b(2) = (  0.000000  0.167740  0.000000 )  
               b(3) = (  0.000000  0.000000  0.039752 )  


     PseudoPot. # 1 for Ti read from file:
     /gpfs/pace1/project/chbe-medford/medford-share/data/pseudos/SSSP_eff_PBE/Ti.UPF
     MD5 check sum: 88a00a6731bd790ddea75d31a80cb452
     Pseudo is Ultrasoft + core correction, Zval = 12.0
     Generated by new atomic code, or converted to UPF format
     Using radial grid of  851 points,  6 beta functions with: 
                l(1) =   0
                l(2) =   0
                l(3) =   1
                l(4) =   1
                l(5) =   2
                l(6) =   2
     Q(r) pseudized with  6 coefficients,  rinner =    1.000   1.000   1.000
                                                       1.000   1.000

     PseudoPot. # 2 for O  read from file:
     /gpfs/pace1/project/chbe-medford/medford-share/data/pseudos/SSSP_eff_PBE/O.UPF
     MD5 check sum: 734c27235a0248c51dbae37a1fbe46ec
     Pseudo is Ultrasoft + core correction, Zval =  6.0
     Generated by new atomic code, or converted to UPF format
     Using radial grid of  737 points,  5 beta functions with: 
                l(1) =   0
                l(2) =   0
                l(3) =   1
                l(4) =   1
                l(5) =   2
     Q(r) pseudized with  8 coefficients,  rinner =    0.900   0.900   0.900
                                                       0.900   0.900

     PseudoPot. # 3 for O  read from file:
     /gpfs/pace1/project/chbe-medford/medford-share/data/pseudos/SSSP_eff_PBE/O.UPF
     MD5 check sum: 734c27235a0248c51dbae37a1fbe46ec
     Pseudo is Ultrasoft + core correction, Zval =  6.0
     Generated by new atomic code, or converted to UPF format
     Using radial grid of  737 points,  5 beta functions with: 
                l(1) =   0
                l(2) =   0
                l(3) =   1
                l(4) =   1
                l(5) =   2
     Q(r) pseudized with  8 coefficients,  rinner =    0.900   0.900   0.900
                                                       0.900   0.900

     vdW kernel table read from file vdW_kernel_table
     MD5 check sum: 88c60d17101ec99b63477f765c8de84d

     atomic species   valence    mass     pseudopotential
        Ti1           12.00    47.86700     Ti( 1.00)
        O1             6.00    15.99900     O ( 1.00)
        O2             6.00    15.99900     O ( 1.00)

     Starting magnetic structure 
     atomic species   magnetization
        Ti1          0.000
        O1           0.000
        O2           0.017

     No symmetry found



   Cartesian axes

     site n.     atom                  positions (alat units)
         1           Ti1 tau(   1) = (   0.0004258   2.9801865   6.0000000  )
         2           Ti1 tau(   2) = (   3.2906075   1.4906267   6.0002472  )
         3           O1  tau(   3) = (   0.0006271   0.0005054   7.9858123  )
         4           O1  tau(   4) = (   3.2906025   0.0005020   7.3038282  )
         5           O1  tau(   5) = (   4.5942328   1.4918067   9.2879030  )
         6           O1  tau(   6) = (   1.9868534   1.4903216   9.2879459  )
         7           Ti1 tau(   7) = (   3.2904475   2.9703585   9.1654631  )
         8           Ti1 tau(   8) = (   0.0008825   1.4908495   9.3857745  )
         9           O1  tau(   9) = (   3.2901053   0.0004349  11.3417729  )
        10           O1  tau(  10) = (   0.0007278   0.0005959  10.5671172  )
        11           O1  tau(  11) = (   1.2996080   1.4910596  12.6492414  )
        12           O1  tau(  12) = (   5.2786525   1.4909202  12.6486832  )
        13           Ti1 tau(  13) = (   0.0028492   2.9815775  12.8358882  )
        14           Ti1 tau(  14) = (   3.2942692   1.4908582  12.4920750  )
        15           O1  tau(  15) = (   0.0006634   0.0005720  14.6658802  )
        16           O1  tau(  16) = (   3.2899560   0.0004788  13.9247723  )
        17           O1  tau(  17) = (   4.5290407   1.4908939  16.0731822  )
        18           O1  tau(  18) = (   2.0516356   1.4907971  16.0734475  )
        19           Ti1 tau(  19) = (   3.2901416   2.9812968  15.7274477  )
        20           Ti1 tau(  20) = (   0.0005055   1.4908095  16.1822636  )
        21           O1  tau(  21) = (   3.2904802   0.0005063   4.7018136  )
        22           O1  tau(  22) = (   0.0006281   0.0005458  17.2442474  )
        23           O1  tau(  23) = (   1.3043587   1.4918075   6.0039043  )
        24           O1  tau(  24) = (   5.2767064   1.4903225   6.0039473  )
        25           Ti1 tau(  25) = (   0.0000382   5.9609847   6.0000000  )
        26           Ti1 tau(  26) = (   3.2902200   4.4714249   6.0002472  )
        27           O1  tau(  27) = (   0.0002396   2.9813036   7.9858123  )
        28           O1  tau(  28) = (   3.2902150   2.9813002   7.3038282  )
        29           O1  tau(  29) = (   4.5938453   4.4726049   9.2879030  )
        30           O1  tau(  30) = (   1.9864658   4.4711199   9.2879459  )
        31           Ti1 tau(  31) = (   3.2900599   5.9511568   9.1654669  )
        32           Ti1 tau(  32) = (   0.0004948   4.4716317   9.3857745  )
        33           O1  tau(  33) = (   3.2897177   2.9812333  11.3417678  )
        34           O1  tau(  34) = (   0.0003402   2.9813941  10.5671111  )
        35           O1  tau(  35) = (   1.2992204   4.4718476  12.6492415  )
        36           O1  tau(  36) = (   5.2782650   4.4717085  12.6486833  )
        37           Ti1 tau(  37) = (   0.0032367   0.0007790  12.8359536  )
        38           Ti1 tau(  38) = (   3.2938817   4.4716805  12.4920751  )
        39           O1  tau(  39) = (   0.0002757   2.9813702  14.6659401  )
        40           O1  tau(  40) = (   3.2895685   2.9812772  13.9247654  )
        41           O1  tau(  41) = (   4.5286531   4.4716739  16.0731822  )
        42           O1  tau(  42) = (   2.0512481   4.4715771  16.0734475  )
        43           Ti1 tau(  43) = (   3.2905290   0.0004983  15.7274369  )
        44           Ti1 tau(  44) = (   0.0001179   4.4718642  16.1822636  )
        45           O1  tau(  45) = (   3.2900926   2.9813045   4.7018136  )
        46           O1  tau(  46) = (   0.0002405   2.9813440  17.2443479  )
        47           O1  tau(  47) = (   1.3039711   4.4726057   6.0039043  )
        48           O2  tau(  48) = (   5.2763189   4.4711207   6.0039473  )

     number of k points=    20  Fermi-Dirac smearing, width (Ry)=  0.0073
                       cart. coord. in units 2pi/alat
        k(    1) = (   0.0000000   0.0000000   0.0000000), wk =   0.0625000
        k(    2) = (   0.0000000   0.0419351   0.0000000), wk =   0.1250000
        k(    3) = (   0.0000000  -0.0838702   0.0000000), wk =   0.0625000
        k(    4) = (   0.0379955   0.0000049   0.0000000), wk =   0.1250000
        k(    5) = (   0.0379955   0.0419400   0.0000000), wk =   0.1250000
        k(    6) = (   0.0379955  -0.0838652   0.0000000), wk =   0.1250000
        k(    7) = (   0.0379955  -0.0419301   0.0000000), wk =   0.1250000
        k(    8) = (  -0.0759910  -0.0000099   0.0000000), wk =   0.0625000
        k(    9) = (  -0.0759910   0.0419252   0.0000000), wk =   0.1250000
        k(   10) = (  -0.0759910  -0.0838800   0.0000000), wk =   0.0625000
        k(   11) = (   0.0000000   0.0000000   0.0000000), wk =   0.0625000
        k(   12) = (   0.0000000   0.0419351   0.0000000), wk =   0.1250000
        k(   13) = (   0.0000000  -0.0838702   0.0000000), wk =   0.0625000
        k(   14) = (   0.0379955   0.0000049   0.0000000), wk =   0.1250000
        k(   15) = (   0.0379955   0.0419400   0.0000000), wk =   0.1250000
        k(   16) = (   0.0379955  -0.0838652   0.0000000), wk =   0.1250000
        k(   17) = (   0.0379955  -0.0419301   0.0000000), wk =   0.1250000
        k(   18) = (  -0.0759910  -0.0000099   0.0000000), wk =   0.0625000
        k(   19) = (  -0.0759910   0.0419252   0.0000000), wk =   0.1250000
        k(   20) = (  -0.0759910  -0.0838800   0.0000000), wk =   0.0625000

     Dense  grid:   566857 G-vectors     FFT dimensions: (  72,  64, 270)

     Smooth grid:   143421 G-vectors     FFT dimensions: (  45,  40, 180)

     Largest allocated arrays     est. size (Mb)     dimensions
        Kohn-Sham Wavefunctions         4.03 Mb     (    1309,  202)
        NL pseudopotentials            14.06 Mb     (    1309,  704)
        Each V/rho on FFT grid          2.81 Mb     (   92160,   2)
        Each G-vector array             0.31 Mb     (   40486)
        G-vector shells                 0.15 Mb     (   19900)
     Largest temporary arrays     est. size (Mb)     dimensions
        Auxiliary wavefunctions        16.14 Mb     (    1309,  808)
        Each subspace H/S matrix        9.96 Mb     (     808,  808)
        Each <psi_i|beta_j> matrix      2.17 Mb     (     704,  202)
        Arrays for rho mixing          11.25 Mb     (   92160,    8)

     Check: negative/imaginary core charge=   -0.000005    0.000000

     Initial potential from superposition of free atoms
     Check: negative starting charge=(component1):   -0.012971
     Check: negative starting charge=(component2):   -0.012971

     starting charge  367.99925, renormalised to  384.00000

     negative rho (up, down):  1.353E-02 1.353E-02


     ************************************************************************
     *
     * You are using vdW-DF for exchange-correlation in this calculation.
     * Please cite the following three references that made this development
     * possible:
     *
     *   M. Dion, H. Rydberg, E. Schroder, D. C. Langreth, and
     *   B. I. Lundqvist, Phys. Rev. Lett. 92, 246401 (2004).
     *
     *   T. Thonhauser, V. R. Cooper, S. Li, A. Puzder, P. Hyldgaard, and
     *   D. C. Langreth, Phys. Rev. B 76, 125112 (2007).
     *
     *   G. Roman-Perez and J. M. Soler, Phys. Rev. Lett. 103, 096102 (2009).
     *
     *
     * If you are using vdW-DF2, please also cite:
     *
     *   K. Lee, E. D. Murray, L. Kong, B. I. Lundqvist, and
     *   D. C. Langreth, Phys. Rev. B 82, 081101(R) (2010).
     *
     *
     * If you are calculating the stress with vdW-DF, please also cite:
     *
     *   R. Sabatini, E. Kucukbenli, B. Kolb, T. Thonhauser, and
     *   S. de Gironcoli, J. Phys.: Condens. Matter 24, 424209 (2012).
     *
     ************************************************************************

     Carrying out vdW-DF run using the following parameters:

     Nqs =      20    Nr_points =    1024   r_max =   100.000
     q_mesh =
               0.00001000     0.04494208     0.09755937     0.15916263
               0.23128650     0.31572767     0.41458969     0.53033537
               0.66584808     0.82450364     1.01025438     1.22772762
               1.48234092     1.78043706     2.12944203     2.53805004
               3.01644009     3.57652955     4.23227104     5.00000000

     Gradients computed in reciprocal space

     ************************************************************************


 
     Adding external electric field

     Computed dipole along edir(3) : 
        Dipole               -0.1826 Ry au,         -0.4641 Debye
        Dipole field         -0.0003 Ry au
 
        Potential amp.        0.0319 Ry
        Total length         46.3494 bohr
 
 
     Adding external electric field

     Computed dipole along edir(3) : 
        Dipole               -0.1826 Ry au,         -0.4641 Debye
        Dipole field         -0.0003 Ry au
 
        Potential amp.        0.0319 Ry
        Total length         46.3494 bohr
 
     Starting wfc are  288 atomic wfcs

     total cpu time spent up to now is       33.3 secs

     per-process dynamical memory:   147.0 Mb

     Self-consistent Calculation

     iteration #  1     ecut=    29.40 Ry     beta=0.05
     Davidson diagonalization with overlap
     ethr =  1.00E-02,  avg # of iterations =  2.0

     negative rho (up, down):  1.373E-02 1.373E-02
 
     Adding external electric field

     Computed dipole along edir(3) : 
        Dipole               -0.1764 Ry au,         -0.4484 Debye
        Dipole field         -0.0003 Ry au
 
        Potential amp.        0.0309 Ry
        Total length         46.3494 bohr
 
 
     Adding external electric field

     Computed dipole along edir(3) : 
        Dipole               -0.1764 Ry au,         -0.4484 Debye
        Dipole field         -0.0003 Ry au
 
        Potential amp.        0.0309 Ry
        Total length         46.3494 bohr
 
 
     Magnetic moment per site:
     atom:    1    charge:    3.1903    magn:   -0.0000    constr:    0.0000
     atom:    2    charge:    3.1930    magn:   -0.0000    constr:    0.0000
     atom:    3    charge:    2.0969    magn:   -0.0000    constr:    0.0000
     atom:    4    charge:    2.1043    magn:   -0.0000    constr:    0.0000
     atom:    5    charge:    2.0976    magn:    0.0000    constr:    0.0000
     atom:    6    charge:    2.0977    magn:   -0.0000    constr:    0.0000
     atom:    7    charge:    3.1896    magn:   -0.0000    constr:    0.0000
     atom:    8    charge:    3.1913    magn:   -0.0000    constr:    0.0000
     atom:    9    charge:    2.1011    magn:    0.0000    constr:    0.0000
     atom:   10    charge:    2.0995    magn:    0.0000    constr:    0.0000
     atom:   11    charge:    2.0983    magn:    0.0000    constr:    0.0000
     atom:   12    charge:    2.0983    magn:    0.0000    constr:    0.0000
     atom:   13    charge:    3.1908    magn:   -0.0000    constr:    0.0000
     atom:   14    charge:    3.1878    magn:   -0.0000    constr:    0.0000
     atom:   15    charge:    2.0990    magn:    0.0000    constr:    0.0000
     atom:   16    charge:    2.1012    magn:    0.0000    constr:    0.0000
     atom:   17    charge:    2.0943    magn:    0.0000    constr:    0.0000
     atom:   18    charge:    2.0941    magn:    0.0000    constr:    0.0000
     atom:   19    charge:    3.1914    magn:   -0.0000    constr:    0.0000
     atom:   20    charge:    3.1930    magn:   -0.0000    constr:    0.0000
     atom:   21    charge:    2.0904    magn:   -0.0000    constr:    0.0000
     atom:   22    charge:    2.0970    magn:    0.0000    constr:    0.0000
     atom:   23    charge:    2.0966    magn:   -0.0000    constr:    0.0000
     atom:   24    charge:    2.0968    magn:   -0.0000    constr:    0.0000
     atom:   25    charge:    3.1903    magn:   -0.0000    constr:    0.0000
     atom:   26    charge:    3.1930    magn:    0.0000    constr:    0.0000
     atom:   27    charge:    2.0969    magn:   -0.0000    constr:    0.0000
     atom:   28    charge:    2.1043    magn:   -0.0000    constr:    0.0000
     atom:   29    charge:    2.0976    magn:    0.0000    constr:    0.0000
     atom:   30    charge:    2.0977    magn:    0.0000    constr:    0.0000
     atom:   31    charge:    3.1896    magn:   -0.0000    constr:    0.0000
     atom:   32    charge:    3.1913    magn:   -0.0000    constr:    0.0000
     atom:   33    charge:    2.1011    magn:    0.0000    constr:    0.0000
     atom:   34    charge:    2.0995    magn:    0.0000    constr:    0.0000
     atom:   35    charge:    2.0983    magn:    0.0000    constr:    0.0000
     atom:   36    charge:    2.0983    magn:    0.0000    constr:    0.0000
     atom:   37    charge:    3.1908    magn:   -0.0000    constr:    0.0000
     atom:   38    charge:    3.1878    magn:   -0.0000    constr:    0.0000
     atom:   39    charge:    2.0990    magn:    0.0000    constr:    0.0000
     atom:   40    charge:    2.1012    magn:    0.0000    constr:    0.0000
     atom:   41    charge:    2.0943    magn:    0.0000    constr:    0.0000
     atom:   42    charge:    2.0941    magn:    0.0000    constr:    0.0000
     atom:   43    charge:    3.1914    magn:   -0.0000    constr:    0.0000
     atom:   44    charge:    3.1931    magn:   -0.0000    constr:    0.0000
     atom:   45    charge:    2.0904    magn:   -0.0000    constr:    0.0000
     atom:   46    charge:    2.0970    magn:    0.0000    constr:    0.0000
     atom:   47    charge:    2.0966    magn:   -0.0000    constr:    0.0000
     atom:   48    charge:    2.0968    magn:    0.0330    constr:    0.0000

     total cpu time spent up to now is       87.1 secs

     total energy              =   -2968.19439392 Ry
     Harris-Foulkes estimate   =   -2969.24420471 Ry
     estimated scf accuracy    <      12.35735221 Ry

     total magnetization       =     0.00 Bohr mag/cell
     absolute magnetization    =     0.02 Bohr mag/cell

     iteration #  2     ecut=    29.40 Ry     beta=0.05
     Davidson diagonalization with overlap
     ethr =  3.22E-03,  avg # of iterations =  1.0

     negative rho (up, down):  1.706E-02 1.706E-02
 
     Adding external electric field

     Computed dipole along edir(3) : 
        Dipole               -0.1107 Ry au,         -0.2813 Debye
        Dipole field         -0.0002 Ry au
 
        Potential amp.        0.0194 Ry
        Total length         46.3494 bohr
 
 
     Adding external electric field

     Computed dipole along edir(3) : 
        Dipole               -0.1107 Ry au,         -0.2813 Debye
        Dipole field         -0.0002 Ry au
 
        Potential amp.        0.0194 Ry
        Total length         46.3494 bohr
 
 
     Magnetic moment per site:
     atom:    1    charge:    3.0743    magn:   -0.0002    constr:    0.0000
     atom:    2    charge:    3.0855    magn:   -0.0000    constr:    0.0000
     atom:    3    charge:    2.1631    magn:   -0.0000    constr:    0.0000
     atom:    4    charge:    2.1793    magn:   -0.0000    constr:    0.0000
     atom:    5    charge:    2.1672    magn:    0.0000    constr:    0.0000
     atom:    6    charge:    2.1673    magn:    0.0000    constr:    0.0000
     atom:    7    charge:    3.0775    magn:   -0.0000    constr:    0.0000
     atom:    8    charge:    3.0812    magn:   -0.0000    constr:    0.0000
     atom:    9    charge:    2.1716    magn:    0.0000    constr:    0.0000
     atom:   10    charge:    2.1698    magn:    0.0000    constr:    0.0000
     atom:   11    charge:    2.1677    magn:    0.0000    constr:    0.0000
     atom:   12    charge:    2.1677    magn:    0.0000    constr:    0.0000
     atom:   13    charge:    3.0807    magn:   -0.0000    constr:    0.0000
     atom:   14    charge:    3.0759    magn:   -0.0000    constr:    0.0000
     atom:   15    charge:    2.1692    magn:    0.0000    constr:    0.0000
     atom:   16    charge:    2.1716    magn:    0.0000    constr:    0.0000
     atom:   17    charge:    2.1617    magn:   -0.0000    constr:    0.0000
     atom:   18    charge:    2.1616    magn:    0.0000    constr:    0.0000
     atom:   19    charge:    3.0834    magn:   -0.0000    constr:    0.0000
     atom:   20    charge:    3.0859    magn:   -0.0000    constr:    0.0000
     atom:   21    charge:    2.1554    magn:   -0.0000    constr:    0.0000
     atom:   22    charge:    2.1675    magn:    0.0000    constr:    0.0000
     atom:   23    charge:    2.1640    magn:   -0.0001    constr:    0.0000
     atom:   24    charge:    2.1642    magn:   -0.0000    constr:    0.0000
     atom:   25    charge:    3.0743    magn:   -0.0002    constr:    0.0000
     atom:   26    charge:    3.0855    magn:   -0.0001    constr:    0.0000
     atom:   27    charge:    2.1631    magn:   -0.0000    constr:    0.0000
     atom:   28    charge:    2.1793    magn:   -0.0000    constr:    0.0000
     atom:   29    charge:    2.1672    magn:    0.0000    constr:    0.0000
     atom:   30    charge:    2.1673    magn:    0.0000    constr:    0.0000
     atom:   31    charge:    3.0774    magn:   -0.0000    constr:    0.0000
     atom:   32    charge:    3.0812    magn:   -0.0000    constr:    0.0000
     atom:   33    charge:    2.1716    magn:    0.0000    constr:    0.0000
     atom:   34    charge:    2.1698    magn:    0.0000    constr:    0.0000
     atom:   35    charge:    2.1677    magn:    0.0000    constr:    0.0000
     atom:   36    charge:    2.1677    magn:    0.0000    constr:    0.0000
     atom:   37    charge:    3.0807    magn:   -0.0000    constr:    0.0000
     atom:   38    charge:    3.0759    magn:   -0.0000    constr:    0.0000
     atom:   39    charge:    2.1692    magn:    0.0000    constr:    0.0000
     atom:   40    charge:    2.1716    magn:    0.0000    constr:    0.0000
     atom:   41    charge:    2.1617    magn:   -0.0000    constr:    0.0000
     atom:   42    charge:    2.1616    magn:    0.0000    constr:    0.0000
     atom:   43    charge:    3.0834    magn:   -0.0000    constr:    0.0000
     atom:   44    charge:    3.0859    magn:   -0.0000    constr:    0.0000
     atom:   45    charge:    2.1554    magn:   -0.0000    constr:    0.0000
     atom:   46    charge:    2.1675    magn:    0.0000    constr:    0.0000
     atom:   47    charge:    2.1640    magn:   -0.0000    constr:    0.0000
     atom:   48    charge:    2.1642    magn:    0.0234    constr:    0.0000

     total cpu time spent up to now is      133.7 secs

     total energy              =   -2963.50582830 Ry
     Harris-Foulkes estimate   =   -2968.32581970 Ry
     estimated scf accuracy    <       9.33649047 Ry

     total magnetization       =     0.00 Bohr mag/cell
     absolute magnetization    =     0.02 Bohr mag/cell

     iteration #  3     ecut=    29.40 Ry     beta=0.05
     Davidson diagonalization with overlap
     ethr =  2.43E-03,  avg # of iterations =  4.4

     negative rho (up, down):  1.663E-02 1.663E-02
 
     Adding external electric field

     Computed dipole along edir(3) : 
        Dipole               -0.1370 Ry au,         -0.3482 Debye
        Dipole field         -0.0003 Ry au
 
        Potential amp.        0.0240 Ry
        Total length         46.3494 bohr
 
 
     Adding external electric field

     Computed dipole along edir(3) : 
        Dipole               -0.1370 Ry au,         -0.3482 Debye
        Dipole field         -0.0003 Ry au
 
        Potential amp.        0.0240 Ry
        Total length         46.3494 bohr
 
 
     Magnetic moment per site:
     atom:    1    charge:    3.0831    magn:   -0.0002    constr:    0.0000
     atom:    2    charge:    3.0924    magn:   -0.0000    constr:    0.0000
     atom:    3    charge:    2.1584    magn:   -0.0000    constr:    0.0000
     atom:    4    charge:    2.1742    magn:   -0.0000    constr:    0.0000
     atom:    5    charge:    2.1624    magn:    0.0000    constr:    0.0000
     atom:    6    charge:    2.1626    magn:    0.0000    constr:    0.0000
     atom:    7    charge:    3.0848    magn:   -0.0000    constr:    0.0000
     atom:    8    charge:    3.0882    magn:   -0.0000    constr:    0.0000
     atom:    9    charge:    2.1668    magn:    0.0000    constr:    0.0000
     atom:   10    charge:    2.1650    magn:    0.0000    constr:    0.0000
     atom:   11    charge:    2.1630    magn:    0.0000    constr:    0.0000
     atom:   12    charge:    2.1630    magn:    0.0000    constr:    0.0000
     atom:   13    charge:    3.0877    magn:   -0.0000    constr:    0.0000
     atom:   14    charge:    3.0831    magn:   -0.0000    constr:    0.0000
     atom:   15    charge:    2.1644    magn:    0.0000    constr:    0.0000
     atom:   16    charge:    2.1669    magn:    0.0000    constr:    0.0000
     atom:   17    charge:    2.1572    magn:   -0.0000    constr:    0.0000
     atom:   18    charge:    2.1570    magn:    0.0000    constr:    0.0000
     atom:   19    charge:    3.0903    magn:   -0.0000    constr:    0.0000
     atom:   20    charge:    3.0927    magn:    0.0000    constr:    0.0000
     atom:   21    charge:    2.1494    magn:   -0.0000    constr:    0.0000
     atom:   22    charge:    2.1625    magn:    0.0000    constr:    0.0000
     atom:   23    charge:    2.1594    magn:   -0.0001    constr:    0.0000
     atom:   24    charge:    2.1596    magn:   -0.0000    constr:    0.0000
     atom:   25    charge:    3.0831    magn:   -0.0002    constr:    0.0000
     atom:   26    charge:    3.0924    magn:   -0.0001    constr:    0.0000
     atom:   27    charge:    2.1584    magn:   -0.0000    constr:    0.0000
     atom:   28    charge:    2.1742    magn:   -0.0000    constr:    0.0000
     atom:   29    charge:    2.1624    magn:    0.0000    constr:    0.0000
     atom:   30    charge:    2.1626    magn:    0.0000    constr:    0.0000
     atom:   31    charge:    3.0847    magn:   -0.0000    constr:    0.0000
     atom:   32    charge:    3.0882    magn:   -0.0000    constr:    0.0000
     atom:   33    charge:    2.1668    magn:    0.0000    constr:    0.0000
     atom:   34    charge:    2.1650    magn:    0.0000    constr:    0.0000
     atom:   35    charge:    2.1630    magn:    0.0000    constr:    0.0000
     atom:   36    charge:    2.1630    magn:    0.0000    constr:    0.0000
     atom:   37    charge:    3.0877    magn:   -0.0000    constr:    0.0000
     atom:   38    charge:    3.0831    magn:   -0.0000    constr:    0.0000
     atom:   39    charge:    2.1644    magn:    0.0000    constr:    0.0000
     atom:   40    charge:    2.1669    magn:    0.0000    constr:    0.0000
     atom:   41    charge:    2.1572    magn:   -0.0000    constr:    0.0000
     atom:   42    charge:    2.1570    magn:    0.0000    constr:    0.0000
     atom:   43    charge:    3.0903    magn:   -0.0000    constr:    0.0000
     atom:   44    charge:    3.0927    magn:   -0.0000    constr:    0.0000
     atom:   45    charge:    2.1494    magn:   -0.0000    constr:    0.0000
     atom:   46    charge:    2.1625    magn:    0.0000    constr:    0.0000
     atom:   47    charge:    2.1594    magn:   -0.0000    constr:    0.0000
     atom:   48    charge:    2.1595    magn:    0.0240    constr:    0.0000

     total cpu time spent up to now is      226.5 secs

     total energy              =   -2968.12958484 Ry
     Harris-Foulkes estimate   =   -2968.80050630 Ry
     estimated scf accuracy    <      32.95678880 Ry

     total magnetization       =     0.03 Bohr mag/cell
     absolute magnetization    =     0.05 Bohr mag/cell

     iteration #  4     ecut=    29.40 Ry     beta=0.05
     Davidson diagonalization with overlap
     ethr =  2.43E-03,  avg # of iterations =  1.5

     negative rho (up, down):  1.605E-02 1.604E-02
 
     Adding external electric field

     Computed dipole along edir(3) : 
        Dipole               -0.1235 Ry au,         -0.3138 Debye
        Dipole field         -0.0002 Ry au
 
        Potential amp.        0.0216 Ry
        Total length         46.3494 bohr
 
 
     Adding external electric field

     Computed dipole along edir(3) : 
        Dipole               -0.1235 Ry au,         -0.3138 Debye
        Dipole field         -0.0002 Ry au
 
        Potential amp.        0.0216 Ry
        Total length         46.3494 bohr
 
 
     Magnetic moment per site:
     atom:    1    charge:    3.0968    magn:   -0.0002    constr:    0.0000
     atom:    2    charge:    3.1067    magn:   -0.0000    constr:    0.0000
     atom:    3    charge:    2.1482    magn:   -0.0000    constr:    0.0000
     atom:    4    charge:    2.1642    magn:   -0.0000    constr:    0.0000
     atom:    5    charge:    2.1527    magn:   -0.0000    constr:    0.0000
     atom:    6    charge:    2.1528    magn:   -0.0000    constr:    0.0000
     atom:    7    charge:    3.0988    magn:   -0.0000    constr:    0.0000
     atom:    8    charge:    3.1016    magn:   -0.0000    constr:    0.0000
     atom:    9    charge:    2.1568    magn:    0.0000    constr:    0.0000
     atom:   10    charge:    2.1548    magn:    0.0000    constr:    0.0000
     atom:   11    charge:    2.1533    magn:    0.0000    constr:    0.0000
     atom:   12    charge:    2.1533    magn:    0.0000    constr:    0.0000
     atom:   13    charge:    3.1012    magn:    0.0000    constr:    0.0000
     atom:   14    charge:    3.0965    magn:    0.0000    constr:    0.0000
     atom:   15    charge:    2.1545    magn:    0.0000    constr:    0.0000
     atom:   16    charge:    2.1573    magn:    0.0000    constr:    0.0000
     atom:   17    charge:    2.1477    magn:    0.0000    constr:    0.0000
     atom:   18    charge:    2.1475    magn:    0.0000    constr:    0.0000
     atom:   19    charge:    3.1035    magn:    0.0000    constr:    0.0000
     atom:   20    charge:    3.1061    magn:    0.0000    constr:    0.0000
     atom:   21    charge:    2.1385    magn:   -0.0000    constr:    0.0000
     atom:   22    charge:    2.1516    magn:   -0.0000    constr:    0.0000
     atom:   23    charge:    2.1496    magn:   -0.0001    constr:    0.0000
     atom:   24    charge:    2.1498    magn:   -0.0000    constr:    0.0000
     atom:   25    charge:    3.0968    magn:   -0.0002    constr:    0.0000
     atom:   26    charge:    3.1067    magn:   -0.0001    constr:    0.0000
     atom:   27    charge:    2.1482    magn:   -0.0000    constr:    0.0000
     atom:   28    charge:    2.1642    magn:   -0.0000    constr:    0.0000
     atom:   29    charge:    2.1527    magn:   -0.0000    constr:    0.0000
     atom:   30    charge:    2.1528    magn:    0.0000    constr:    0.0000
     atom:   31    charge:    3.0988    magn:   -0.0000    constr:    0.0000
     atom:   32    charge:    3.1016    magn:   -0.0000    constr:    0.0000
     atom:   33    charge:    2.1568    magn:    0.0000    constr:    0.0000
     atom:   34    charge:    2.1548    magn:    0.0000    constr:    0.0000
     atom:   35    charge:    2.1533    magn:    0.0000    constr:    0.0000
     atom:   36    charge:    2.1533    magn:    0.0000    constr:    0.0000
     atom:   37    charge:    3.1012    magn:    0.0000    constr:    0.0000
     atom:   38    charge:    3.0965    magn:    0.0000    constr:    0.0000
     atom:   39    charge:    2.1545    magn:    0.0000    constr:    0.0000
     atom:   40    charge:    2.1573    magn:    0.0000    constr:    0.0000
     atom:   41    charge:    2.1477    magn:    0.0000    constr:    0.0000
     atom:   42    charge:    2.1475    magn:    0.0000    constr:    0.0000
     atom:   43    charge:    3.1035    magn:    0.0000    constr:    0.0000
     atom:   44    charge:    3.1061    magn:    0.0000    constr:    0.0000
     atom:   45    charge:    2.1385    magn:   -0.0000    constr:    0.0000
     atom:   46    charge:    2.1516    magn:   -0.0000    constr:    0.0000
     atom:   47    charge:    2.1496    magn:   -0.0000    constr:    0.0000
     atom:   48    charge:    2.1497    magn:    0.0249    constr:    0.0000

     total cpu time spent up to now is      274.7 secs

     total energy              =   -2967.11142105 Ry
     Harris-Foulkes estimate   =   -2968.17856382 Ry
     estimated scf accuracy    <      23.51789570 Ry

     total magnetization       =     0.02 Bohr mag/cell
     absolute magnetization    =     0.04 Bohr mag/cell

     iteration #  5     ecut=    29.40 Ry     beta=0.05
     Davidson diagonalization with overlap
     ethr =  2.43E-03,  avg # of iterations =  3.0

     negative rho (up, down):  1.582E-02 1.581E-02
 
     Adding external electric field

     Computed dipole along edir(3) : 
        Dipole               -0.0514 Ry au,         -0.1308 Debye
        Dipole field         -0.0001 Ry au
 
        Potential amp.        0.0090 Ry
        Total length         46.3494 bohr
 
 
     Adding external electric field

     Computed dipole along edir(3) : 
        Dipole               -0.0514 Ry au,         -0.1308 Debye
        Dipole field         -0.0001 Ry au
 
        Potential amp.        0.0090 Ry
        Total length         46.3494 bohr
 
 
     Magnetic moment per site:
     atom:    1    charge:    3.0994    magn:   -0.0002    constr:    0.0000
     atom:    2    charge:    3.1099    magn:   -0.0000    constr:    0.0000
     atom:    3    charge:    2.1443    magn:   -0.0000    constr:    0.0000
     atom:    4    charge:    2.1613    magn:   -0.0000    constr:    0.0000
     atom:    5    charge:    2.1494    magn:    0.0000    constr:    0.0000
     atom:    6    charge:    2.1495    magn:    0.0000    constr:    0.0000
     atom:    7    charge:    3.1011    magn:   -0.0000    constr:    0.0000
     atom:    8    charge:    3.1043    magn:   -0.0000    constr:    0.0000
     atom:    9    charge:    2.1534    magn:   -0.0000    constr:    0.0000
     atom:   10    charge:    2.1511    magn:   -0.0000    constr:    0.0000
     atom:   11    charge:    2.1499    magn:    0.0000    constr:    0.0000
     atom:   12    charge:    2.1499    magn:   -0.0000    constr:    0.0000
     atom:   13    charge:    3.1041    magn:   -0.0000    constr:    0.0000
     atom:   14    charge:    3.0992    magn:    0.0000    constr:    0.0000
     atom:   15    charge:    2.1506    magn:    0.0000    constr:    0.0000
     atom:   16    charge:    2.1541    magn:   -0.0000    constr:    0.0000
     atom:   17    charge:    2.1443    magn:   -0.0000    constr:    0.0000
     atom:   18    charge:    2.1441    magn:   -0.0000    constr:    0.0000
     atom:   19    charge:    3.1066    magn:    0.0000    constr:    0.0000
     atom:   20    charge:    3.1091    magn:    0.0000    constr:    0.0000
     atom:   21    charge:    2.1349    magn:    0.0000    constr:    0.0000
     atom:   22    charge:    2.1470    magn:   -0.0000    constr:    0.0000
     atom:   23    charge:    2.1461    magn:   -0.0001    constr:    0.0000
     atom:   24    charge:    2.1463    magn:   -0.0000    constr:    0.0000
     atom:   25    charge:    3.0994    magn:   -0.0002    constr:    0.0000
     atom:   26    charge:    3.1099    magn:   -0.0001    constr:    0.0000
     atom:   27    charge:    2.1443    magn:   -0.0000    constr:    0.0000
     atom:   28    charge:    2.1613    magn:   -0.0000    constr:    0.0000
     atom:   29    charge:    2.1494    magn:   -0.0000    constr:    0.0000
     atom:   30    charge:    2.1495    magn:    0.0000    constr:    0.0000
     atom:   31    charge:    3.1011    magn:   -0.0000    constr:    0.0000
     atom:   32    charge:    3.1043    magn:   -0.0000    constr:    0.0000
     atom:   33    charge:    2.1534    magn:   -0.0000    constr:    0.0000
     atom:   34    charge:    2.1511    magn:   -0.0000    constr:    0.0000
     atom:   35    charge:    2.1499    magn:   -0.0000    constr:    0.0000
     atom:   36    charge:    2.1499    magn:   -0.0000    constr:    0.0000
     atom:   37    charge:    3.1041    magn:   -0.0000    constr:    0.0000
     atom:   38    charge:    3.0992    magn:    0.0000    constr:    0.0000
     atom:   39    charge:    2.1506    magn:    0.0000    constr:    0.0000
     atom:   40    charge:    2.1541    magn:   -0.0000    constr:    0.0000
     atom:   41    charge:    2.1443    magn:   -0.0000    constr:    0.0000
     atom:   42    charge:    2.1441    magn:   -0.0000    constr:    0.0000
     atom:   43    charge:    3.1066    magn:    0.0000    constr:    0.0000
     atom:   44    charge:    3.1091    magn:    0.0000    constr:    0.0000
     atom:   45    charge:    2.1349    magn:    0.0000    constr:    0.0000
     atom:   46    charge:    2.1470    magn:   -0.0000    constr:    0.0000
     atom:   47    charge:    2.1461    magn:   -0.0000    constr:    0.0000
     atom:   48    charge:    2.1463    magn:    0.0249    constr:    0.0000

     total cpu time spent up to now is      328.6 secs

     total energy              =   -2967.19299235 Ry
     Harris-Foulkes estimate   =   -2967.35461118 Ry
     estimated scf accuracy    <       8.49861771 Ry

     total magnetization       =     0.01 Bohr mag/cell
     absolute magnetization    =     0.05 Bohr mag/cell

     iteration #  6     ecut=    29.40 Ry     beta=0.05
     Davidson diagonalization with overlap
     ethr =  2.21E-03,  avg # of iterations =  1.1

     negative rho (up, down):  1.566E-02 1.564E-02
 
     Adding external electric field

     Computed dipole along edir(3) : 
        Dipole                0.0568 Ry au,          0.1445 Debye
        Dipole field          0.0001 Ry au
 
        Potential amp.       -0.0099 Ry
        Total length         46.3494 bohr
 
 
     Adding external electric field

     Computed dipole along edir(3) : 
        Dipole                0.0568 Ry au,          0.1445 Debye
        Dipole field          0.0001 Ry au
 
        Potential amp.       -0.0099 Ry
        Total length         46.3494 bohr
 
 
     Magnetic moment per site:
     atom:    1    charge:    3.1023    magn:   -0.0004    constr:    0.0000
     atom:    2    charge:    3.1164    magn:   -0.0001    constr:    0.0000
     atom:    3    charge:    2.1357    magn:    0.0000    constr:    0.0000
     atom:    4    charge:    2.1548    magn:   -0.0000    constr:    0.0000
     atom:    5    charge:    2.1416    magn:    0.0000    constr:    0.0000
     atom:    6    charge:    2.1417    magn:    0.0000    constr:    0.0000
     atom:    7    charge:    3.1056    magn:   -0.0000    constr:    0.0000
     atom:    8    charge:    3.1095    magn:   -0.0000    constr:    0.0000
     atom:    9    charge:    2.1453    magn:   -0.0000    constr:    0.0000
     atom:   10    charge:    2.1426    magn:    0.0000    constr:    0.0000
     atom:   11    charge:    2.1419    magn:    0.0000    constr:    0.0000
     atom:   12    charge:    2.1419    magn:   -0.0000    constr:    0.0000
     atom:   13    charge:    3.1102    magn:   -0.0000    constr:    0.0000
     atom:   14    charge:    3.1045    magn:   -0.0000    constr:    0.0000
     atom:   15    charge:    2.1418    magn:    0.0000    constr:    0.0000
     atom:   16    charge:    2.1465    magn:   -0.0000    constr:    0.0000
     atom:   17    charge:    2.1364    magn:   -0.0000    constr:    0.0000
     atom:   18    charge:    2.1362    magn:   -0.0000    constr:    0.0000
     atom:   19    charge:    3.1129    magn:    0.0000    constr:    0.0000
     atom:   20    charge:    3.1154    magn:    0.0000    constr:    0.0000
     atom:   21    charge:    2.1268    magn:    0.0005    constr:    0.0000
     atom:   22    charge:    2.1365    magn:   -0.0000    constr:    0.0000
     atom:   23    charge:    2.1382    magn:   -0.0000    constr:    0.0000
     atom:   24    charge:    2.1384    magn:    0.0000    constr:    0.0000
     atom:   25    charge:    3.1023    magn:   -0.0004    constr:    0.0000
     atom:   26    charge:    3.1164    magn:   -0.0001    constr:    0.0000
     atom:   27    charge:    2.1357    magn:    0.0000    constr:    0.0000
     atom:   28    charge:    2.1548    magn:   -0.0000    constr:    0.0000
     atom:   29    charge:    2.1416    magn:   -0.0000    constr:    0.0000
     atom:   30    charge:    2.1417    magn:    0.0000    constr:    0.0000
     atom:   31    charge:    3.1056    magn:   -0.0000    constr:    0.0000
     atom:   32    charge:    3.1095    magn:   -0.0000    constr:    0.0000
     atom:   33    charge:    2.1453    magn:   -0.0000    constr:    0.0000
     atom:   34    charge:    2.1426    magn:    0.0000    constr:    0.0000
     atom:   35    charge:    2.1419    magn:   -0.0000    constr:    0.0000
     atom:   36    charge:    2.1419    magn:   -0.0000    constr:    0.0000
     atom:   37    charge:    3.1101    magn:   -0.0000    constr:    0.0000
     atom:   38    charge:    3.1045    magn:   -0.0000    constr:    0.0000
     atom:   39    charge:    2.1418    magn:    0.0000    constr:    0.0000
     atom:   40    charge:    2.1465    magn:   -0.0000    constr:    0.0000
     atom:   41    charge:    2.1364    magn:   -0.0000    constr:    0.0000
     atom:   42    charge:    2.1362    magn:   -0.0000    constr:    0.0000
     atom:   43    charge:    3.1129    magn:    0.0000    constr:    0.0000
     atom:   44    charge:    3.1154    magn:    0.0000    constr:    0.0000
     atom:   45    charge:    2.1268    magn:    0.0005    constr:    0.0000
     atom:   46    charge:    2.1365    magn:   -0.0000    constr:    0.0000
     atom:   47    charge:    2.1382    magn:    0.0000    constr:    0.0000
     atom:   48    charge:    2.1384    magn:    0.0246    constr:    0.0000

     total cpu time spent up to now is      375.6 secs

     total energy              =   -2966.93977561 Ry
     Harris-Foulkes estimate   =   -2967.23721486 Ry
     estimated scf accuracy    <       7.43585072 Ry

     total magnetization       =     0.03 Bohr mag/cell
     absolute magnetization    =     0.09 Bohr mag/cell

     iteration #  7     ecut=    29.40 Ry     beta=0.05
     Davidson diagonalization with overlap
     ethr =  1.94E-03,  avg # of iterations =  1.3

     negative rho (up, down):  1.610E-02 1.607E-02
 
     Adding external electric field

     Computed dipole along edir(3) : 
        Dipole                0.1704 Ry au,          0.4330 Debye
        Dipole field          0.0003 Ry au
 
        Potential amp.       -0.0298 Ry
        Total length         46.3494 bohr
 
 
     Adding external electric field

     Computed dipole along edir(3) : 
        Dipole                0.1704 Ry au,          0.4330 Debye
        Dipole field          0.0003 Ry au
 
        Potential amp.       -0.0298 Ry
        Total length         46.3494 bohr
 
 
     Magnetic moment per site:
     atom:    1    charge:    3.0919    magn:   -0.0006    constr:    0.0000
     atom:    2    charge:    3.1119    magn:   -0.0001    constr:    0.0000
     atom:    3    charge:    2.1305    magn:    0.0000    constr:    0.0000
     atom:    4    charge:    2.1527    magn:   -0.0000    constr:    0.0000
     atom:    5    charge:    2.1376    magn:    0.0000    constr:    0.0000
     atom:    6    charge:    2.1377    magn:    0.0000    constr:    0.0000
     atom:    7    charge:    3.0982    magn:   -0.0001    constr:    0.0000
     atom:    8    charge:    3.1027    magn:   -0.0000    constr:    0.0000
     atom:    9    charge:    2.1411    magn:   -0.0000    constr:    0.0000
     atom:   10    charge:    2.1377    magn:   -0.0000    constr:    0.0000
     atom:   11    charge:    2.1376    magn:    0.0000    constr:    0.0000
     atom:   12    charge:    2.1376    magn:   -0.0000    constr:    0.0000
     atom:   13    charge:    3.1040    magn:   -0.0000    constr:    0.0000
     atom:   14    charge:    3.0977    magn:   -0.0000    constr:    0.0000
     atom:   15    charge:    2.1364    magn:    0.0000    constr:    0.0000
     atom:   16    charge:    2.1427    magn:   -0.0000    constr:    0.0000
     atom:   17    charge:    2.1320    magn:   -0.0000    constr:    0.0000
     atom:   18    charge:    2.1319    magn:   -0.0000    constr:    0.0000
     atom:   19    charge:    3.1076    magn:   -0.0000    constr:    0.0000
     atom:   20    charge:    3.1098    magn:    0.0000    constr:    0.0000
     atom:   21    charge:    2.1201    magn:    0.0008    constr:    0.0000
     atom:   22    charge:    2.1289    magn:   -0.0000    constr:    0.0000
     atom:   23    charge:    2.1335    magn:   -0.0000    constr:    0.0000
     atom:   24    charge:    2.1337    magn:    0.0000    constr:    0.0000
     atom:   25    charge:    3.0919    magn:   -0.0006    constr:    0.0000
     atom:   26    charge:    3.1119    magn:   -0.0002    constr:    0.0000
     atom:   27    charge:    2.1305    magn:    0.0000    constr:    0.0000
     atom:   28    charge:    2.1527    magn:   -0.0000    constr:    0.0000
     atom:   29    charge:    2.1376    magn:   -0.0000    constr:    0.0000
     atom:   30    charge:    2.1377    magn:    0.0000    constr:    0.0000
     atom:   31    charge:    3.0982    magn:   -0.0001    constr:    0.0000
     atom:   32    charge:    3.1027    magn:   -0.0000    constr:    0.0000
     atom:   33    charge:    2.1411    magn:   -0.0000    constr:    0.0000
     atom:   34    charge:    2.1377    magn:    0.0000    constr:    0.0000
     atom:   35    charge:    2.1376    magn:   -0.0000    constr:    0.0000
     atom:   36    charge:    2.1376    magn:   -0.0000    constr:    0.0000
     atom:   37    charge:    3.1040    magn:   -0.0000    constr:    0.0000
     atom:   38    charge:    3.0977    magn:   -0.0000    constr:    0.0000
     atom:   39    charge:    2.1364    magn:    0.0000    constr:    0.0000
     atom:   40    charge:    2.1427    magn:   -0.0000    constr:    0.0000
     atom:   41    charge:    2.1320    magn:   -0.0000    constr:    0.0000
     atom:   42    charge:    2.1319    magn:   -0.0000    constr:    0.0000
     atom:   43    charge:    3.1076    magn:   -0.0000    constr:    0.0000
     atom:   44    charge:    3.1098    magn:    0.0000    constr:    0.0000
     atom:   45    charge:    2.1201    magn:    0.0008    constr:    0.0000
     atom:   46    charge:    2.1289    magn:   -0.0000    constr:    0.0000
     atom:   47    charge:    2.1335    magn:    0.0000    constr:    0.0000
     atom:   48    charge:    2.1337    magn:    0.0228    constr:    0.0000

     total cpu time spent up to now is      423.1 secs

     total energy              =   -2967.10078459 Ry
     Harris-Foulkes estimate   =   -2967.00882314 Ry
     estimated scf accuracy    <       4.81429330 Ry

     total magnetization       =     0.01 Bohr mag/cell
     absolute magnetization    =     0.05 Bohr mag/cell

     iteration #  8     ecut=    29.40 Ry     beta=0.05
     Davidson diagonalization with overlap
     ethr =  1.25E-03,  avg # of iterations =  1.0

     negative rho (up, down):  1.664E-02 1.659E-02
 
     Adding external electric field

     Computed dipole along edir(3) : 
        Dipole                0.3634 Ry au,          0.9237 Debye
        Dipole field          0.0007 Ry au
 
        Potential amp.       -0.0636 Ry
        Total length         46.3494 bohr
 
 
     Adding external electric field

     Computed dipole along edir(3) : 
        Dipole                0.3634 Ry au,          0.9237 Debye
        Dipole field          0.0007 Ry au
 
        Potential amp.       -0.0636 Ry
        Total length         46.3494 bohr
 
 
     Magnetic moment per site:
     atom:    1    charge:    3.0898    magn:   -0.0009    constr:    0.0000
     atom:    2    charge:    3.1169    magn:   -0.0001    constr:    0.0000
     atom:    3    charge:    2.1162    magn:    0.0000    constr:    0.0000
     atom:    4    charge:    2.1428    magn:    0.0000    constr:    0.0000
     atom:    5    charge:    2.1254    magn:    0.0000    constr:    0.0000
     atom:    6    charge:    2.1255    magn:    0.0000    constr:    0.0000
     atom:    7    charge:    3.0978    magn:   -0.0001    constr:    0.0000
     atom:    8    charge:    3.1038    magn:   -0.0001    constr:    0.0000
     atom:    9    charge:    2.1280    magn:   -0.0000    constr:    0.0000
     atom:   10    charge:    2.1240    magn:   -0.0000    constr:    0.0000
     atom:   11    charge:    2.1248    magn:    0.0000    constr:    0.0000
     atom:   12    charge:    2.1248    magn:   -0.0000    constr:    0.0000
     atom:   13    charge:    3.1062    magn:   -0.0000    constr:    0.0000
     atom:   14    charge:    3.0979    magn:   -0.0000    constr:    0.0000
     atom:   15    charge:    2.1221    magn:    0.0000    constr:    0.0000
     atom:   16    charge:    2.1306    magn:   -0.0000    constr:    0.0000
     atom:   17    charge:    2.1192    magn:   -0.0000    constr:    0.0000
     atom:   18    charge:    2.1191    magn:   -0.0000    constr:    0.0000
     atom:   19    charge:    3.1100    magn:   -0.0000    constr:    0.0000
     atom:   20    charge:    3.1129    magn:    0.0000    constr:    0.0000
     atom:   21    charge:    2.1018    magn:    0.0014    constr:    0.0000
     atom:   22    charge:    2.1113    magn:   -0.0001    constr:    0.0000
     atom:   23    charge:    2.1194    magn:   -0.0000    constr:    0.0000
     atom:   24    charge:    2.1196    magn:    0.0001    constr:    0.0000
     atom:   25    charge:    3.0898    magn:   -0.0009    constr:    0.0000
     atom:   26    charge:    3.1169    magn:   -0.0002    constr:    0.0000
     atom:   27    charge:    2.1162    magn:    0.0000    constr:    0.0000
     atom:   28    charge:    2.1428    magn:    0.0000    constr:    0.0000
     atom:   29    charge:    2.1254    magn:   -0.0000    constr:    0.0000
     atom:   30    charge:    2.1255    magn:    0.0000    constr:    0.0000
     atom:   31    charge:    3.0978    magn:   -0.0001    constr:    0.0000
     atom:   32    charge:    3.1038    magn:   -0.0001    constr:    0.0000
     atom:   33    charge:    2.1280    magn:   -0.0000    constr:    0.0000
     atom:   34    charge:    2.1240    magn:   -0.0000    constr:    0.0000
     atom:   35    charge:    2.1248    magn:   -0.0000    constr:    0.0000
     atom:   36    charge:    2.1248    magn:   -0.0000    constr:    0.0000
     atom:   37    charge:    3.1062    magn:   -0.0000    constr:    0.0000
     atom:   38    charge:    3.0979    magn:   -0.0000    constr:    0.0000
     atom:   39    charge:    2.1220    magn:    0.0000    constr:    0.0000
     atom:   40    charge:    2.1306    magn:   -0.0000    constr:    0.0000
     atom:   41    charge:    2.1192    magn:   -0.0000    constr:    0.0000
     atom:   42    charge:    2.1191    magn:   -0.0000    constr:    0.0000
     atom:   43    charge:    3.1100    magn:   -0.0000    constr:    0.0000
     atom:   44    charge:    3.1129    magn:    0.0000    constr:    0.0000
     atom:   45    charge:    2.1018    magn:    0.0014    constr:    0.0000
     atom:   46    charge:    2.1113    magn:   -0.0001    constr:    0.0000
     atom:   47    charge:    2.1194    magn:    0.0000    constr:    0.0000
     atom:   48    charge:    2.1196    magn:    0.0211    constr:    0.0000

     total cpu time spent up to now is      469.7 secs

     total energy              =   -2966.92405465 Ry
     Harris-Foulkes estimate   =   -2967.15330227 Ry
     estimated scf accuracy    <       7.71543969 Ry

     total magnetization       =     0.02 Bohr mag/cell
     absolute magnetization    =     0.05 Bohr mag/cell

     iteration #  9     ecut=    29.40 Ry     beta=0.05
     Davidson diagonalization with overlap
     ethr =  1.25E-03,  avg # of iterations =  2.3

     negative rho (up, down):  1.682E-02 1.674E-02
 
     Adding external electric field

     Computed dipole along edir(3) : 
        Dipole                0.4098 Ry au,          1.0416 Debye
        Dipole field          0.0008 Ry au
 
        Potential amp.       -0.0717 Ry
        Total length         46.3494 bohr
 
 
     Adding external electric field

     Computed dipole along edir(3) : 
        Dipole                0.4098 Ry au,          1.0416 Debye
        Dipole field          0.0008 Ry au
 
        Potential amp.       -0.0717 Ry
        Total length         46.3494 bohr
 
 
     Magnetic moment per site:
     atom:    1    charge:    3.0984    magn:   -0.0013    constr:    0.0000
     atom:    2    charge:    3.1256    magn:   -0.0002    constr:    0.0000
     atom:    3    charge:    2.1012    magn:    0.0000    constr:    0.0000
     atom:    4    charge:    2.1300    magn:    0.0000    constr:    0.0000
     atom:    5    charge:    2.1130    magn:    0.0000    constr:    0.0000
     atom:    6    charge:    2.1131    magn:    0.0000    constr:    0.0000
     atom:    7    charge:    3.1044    magn:   -0.0001    constr:    0.0000
     atom:    8    charge:    3.1098    magn:   -0.0001    constr:    0.0000
     atom:    9    charge:    2.1152    magn:    0.0000    constr:    0.0000
     atom:   10    charge:    2.1111    magn:   -0.0000    constr:    0.0000
     atom:   11    charge:    2.1124    magn:    0.0000    constr:    0.0000
     atom:   12    charge:    2.1124    magn:   -0.0000    constr:    0.0000
     atom:   13    charge:    3.1113    magn:   -0.0000    constr:    0.0000
     atom:   14    charge:    3.1027    magn:   -0.0000    constr:    0.0000
     atom:   15    charge:    2.1094    magn:    0.0000    constr:    0.0000
     atom:   16    charge:    2.1182    magn:   -0.0000    constr:    0.0000
     atom:   17    charge:    2.1070    magn:   -0.0000    constr:    0.0000
     atom:   18    charge:    2.1068    magn:   -0.0000    constr:    0.0000
     atom:   19    charge:    3.1144    magn:    0.0000    constr:    0.0000
     atom:   20    charge:    3.1186    magn:    0.0000    constr:    0.0000
     atom:   21    charge:    2.0800    magn:    0.0025    constr:    0.0000
     atom:   22    charge:    2.0989    magn:   -0.0001    constr:    0.0000
     atom:   23    charge:    2.1037    magn:    0.0000    constr:    0.0000
     atom:   24    charge:    2.1039    magn:    0.0001    constr:    0.0000
     atom:   25    charge:    3.0984    magn:   -0.0013    constr:    0.0000
     atom:   26    charge:    3.1256    magn:   -0.0003    constr:    0.0000
     atom:   27    charge:    2.1012    magn:    0.0000    constr:    0.0000
     atom:   28    charge:    2.1300    magn:    0.0000    constr:    0.0000
     atom:   29    charge:    2.1130    magn:   -0.0000    constr:    0.0000
     atom:   30    charge:    2.1131    magn:    0.0000    constr:    0.0000
     atom:   31    charge:    3.1044    magn:   -0.0001    constr:    0.0000
     atom:   32    charge:    3.1098    magn:   -0.0001    constr:    0.0000
     atom:   33    charge:    2.1152    magn:    0.0000    constr:    0.0000
     atom:   34    charge:    2.1111    magn:    0.0000    constr:    0.0000
     atom:   35    charge:    2.1124    magn:   -0.0000    constr:    0.0000
     atom:   36    charge:    2.1124    magn:   -0.0000    constr:    0.0000
     atom:   37    charge:    3.1113    magn:   -0.0000    constr:    0.0000
     atom:   38    charge:    3.1027    magn:   -0.0000    constr:    0.0000
     atom:   39    charge:    2.1094    magn:    0.0000    constr:    0.0000
     atom:   40    charge:    2.1182    magn:   -0.0000    constr:    0.0000
     atom:   41    charge:    2.1070    magn:   -0.0000    constr:    0.0000
     atom:   42    charge:    2.1068    magn:   -0.0000    constr:    0.0000
     atom:   43    charge:    3.1144    magn:    0.0000    constr:    0.0000
     atom:   44    charge:    3.1186    magn:    0.0000    constr:    0.0000
     atom:   45    charge:    2.0800    magn:    0.0025    constr:    0.0000
     atom:   46    charge:    2.0988    magn:   -0.0001    constr:    0.0000
     atom:   47    charge:    2.1037    magn:    0.0001    constr:    0.0000
     atom:   48    charge:    2.1038    magn:    0.0201    constr:    0.0000

     total cpu time spent up to now is      520.7 secs

     total energy              =   -2966.62066921 Ry
     Harris-Foulkes estimate   =   -2966.99543573 Ry
     estimated scf accuracy    <       6.47648314 Ry

     total magnetization       =     0.04 Bohr mag/cell
     absolute magnetization    =     0.08 Bohr mag/cell

     iteration # 10     ecut=    29.40 Ry     beta=0.05
     Davidson diagonalization with overlap
     ethr =  1.25E-03,  avg # of iterations =  3.2

     negative rho (up, down):  1.665E-02 1.657E-02
 
     Adding external electric field

     Computed dipole along edir(3) : 
        Dipole                0.4614 Ry au,          1.1729 Debye
        Dipole field          0.0009 Ry au
 
        Potential amp.       -0.0807 Ry
        Total length         46.3494 bohr
 
 
     Adding external electric field

     Computed dipole along edir(3) : 
        Dipole                0.4614 Ry au,          1.1729 Debye
        Dipole field          0.0009 Ry au
 
        Potential amp.       -0.0807 Ry
        Total length         46.3494 bohr
 
 
     Magnetic moment per site:
     atom:    1    charge:    3.1010    magn:   -0.0014    constr:    0.0000
     atom:    2    charge:    3.1290    magn:   -0.0002    constr:    0.0000
     atom:    3    charge:    2.0932    magn:    0.0000    constr:    0.0000
     atom:    4    charge:    2.1232    magn:    0.0000    constr:    0.0000
     atom:    5    charge:    2.1059    magn:    0.0000    constr:    0.0000
     atom:    6    charge:    2.1060    magn:    0.0000    constr:    0.0000
     atom:    7    charge:    3.1078    magn:   -0.0001    constr:    0.0000
     atom:    8    charge:    3.1132    magn:   -0.0001    constr:    0.0000
     atom:    9    charge:    2.1078    magn:    0.0000    constr:    0.0000
     atom:   10    charge:    2.1033    magn:   -0.0000    constr:    0.0000
     atom:   11    charge:    2.1050    magn:    0.0000    constr:    0.0000
     atom:   12    charge:    2.1050    magn:   -0.0000    constr:    0.0000
     atom:   13    charge:    3.1151    magn:   -0.0000    constr:    0.0000
     atom:   14    charge:    3.1059    magn:   -0.0000    constr:    0.0000
     atom:   15    charge:    2.1015    magn:    0.0000    constr:    0.0000
     atom:   16    charge:    2.1112    magn:   -0.0000    constr:    0.0000
     atom:   17    charge:    2.0997    magn:   -0.0000    constr:    0.0000
     atom:   18    charge:    2.0995    magn:   -0.0000    constr:    0.0000
     atom:   19    charge:    3.1183    magn:    0.0000    constr:    0.0000
     atom:   20    charge:    3.1225    magn:    0.0000    constr:    0.0000
     atom:   21    charge:    2.0716    magn:    0.0027    constr:    0.0000
     atom:   22    charge:    2.0898    magn:   -0.0001    constr:    0.0000
     atom:   23    charge:    2.0961    magn:    0.0000    constr:    0.0000
     atom:   24    charge:    2.0963    magn:    0.0002    constr:    0.0000
     atom:   25    charge:    3.1010    magn:   -0.0014    constr:    0.0000
     atom:   26    charge:    3.1290    magn:   -0.0003    constr:    0.0000
     atom:   27    charge:    2.0932    magn:    0.0000    constr:    0.0000
     atom:   28    charge:    2.1232    magn:    0.0000    constr:    0.0000
     atom:   29    charge:    2.1059    magn:   -0.0000    constr:    0.0000
     atom:   30    charge:    2.1060    magn:    0.0000    constr:    0.0000
     atom:   31    charge:    3.1078    magn:   -0.0001    constr:    0.0000
     atom:   32    charge:    3.1132    magn:   -0.0001    constr:    0.0000
     atom:   33    charge:    2.1078    magn:    0.0000    constr:    0.0000
     atom:   34    charge:    2.1033    magn:    0.0000    constr:    0.0000
     atom:   35    charge:    2.1050    magn:   -0.0000    constr:    0.0000
     atom:   36    charge:    2.1050    magn:   -0.0000    constr:    0.0000
     atom:   37    charge:    3.1151    magn:   -0.0000    constr:    0.0000
     atom:   38    charge:    3.1059    magn:   -0.0000    constr:    0.0000
     atom:   39    charge:    2.1015    magn:    0.0000    constr:    0.0000
     atom:   40    charge:    2.1112    magn:   -0.0000    constr:    0.0000
     atom:   41    charge:    2.0997    magn:   -0.0000    constr:    0.0000
     atom:   42    charge:    2.0995    magn:   -0.0000    constr:    0.0000
     atom:   43    charge:    3.1183    magn:    0.0000    constr:    0.0000
     atom:   44    charge:    3.1225    magn:    0.0001    constr:    0.0000
     atom:   45    charge:    2.0716    magn:    0.0027    constr:    0.0000
     atom:   46    charge:    2.0898    magn:   -0.0001    constr:    0.0000
     atom:   47    charge:    2.0961    magn:    0.0001    constr:    0.0000
     atom:   48    charge:    2.0963    magn:    0.0196    constr:    0.0000

     total cpu time spent up to now is      575.9 secs

     total energy              =   -2966.76215169 Ry
     Harris-Foulkes estimate   =   -2966.81687850 Ry
     estimated scf accuracy    <       0.82720326 Ry

     total magnetization       =     0.01 Bohr mag/cell
     absolute magnetization    =     0.06 Bohr mag/cell

     iteration # 11     ecut=    29.40 Ry     beta=0.05
     Davidson diagonalization with overlap
     ethr =  2.15E-04,  avg # of iterations =  4.6

     negative rho (up, down):  1.618E-02 1.611E-02
 
     Adding external electric field

     Computed dipole along edir(3) : 
        Dipole                0.3784 Ry au,          0.9618 Debye
        Dipole field          0.0007 Ry au
 
        Potential amp.       -0.0662 Ry
        Total length         46.3494 bohr
 
 
     Adding external electric field

     Computed dipole along edir(3) : 
        Dipole                0.3784 Ry au,          0.9618 Debye
        Dipole field          0.0007 Ry au
 
        Potential amp.       -0.0662 Ry
        Total length         46.3494 bohr
 
 
     Magnetic moment per site:
     atom:    1    charge:    3.1030    magn:   -0.0013    constr:    0.0000
     atom:    2    charge:    3.1270    magn:   -0.0002    constr:    0.0000
     atom:    3    charge:    2.0947    magn:    0.0000    constr:    0.0000
     atom:    4    charge:    2.1231    magn:    0.0000    constr:    0.0000
     atom:    5    charge:    2.1073    magn:    0.0000    constr:    0.0000
     atom:    6    charge:    2.1074    magn:    0.0000    constr:    0.0000
     atom:    7    charge:    3.1087    magn:   -0.0001    constr:    0.0000
     atom:    8    charge:    3.1124    magn:   -0.0001    constr:    0.0000
     atom:    9    charge:    2.1094    magn:    0.0000    constr:    0.0000
     atom:   10    charge:    2.1054    magn:   -0.0000    constr:    0.0000
     atom:   11    charge:    2.1068    magn:    0.0000    constr:    0.0000
     atom:   12    charge:    2.1067    magn:   -0.0000    constr:    0.0000
     atom:   13    charge:    3.1139    magn:   -0.0000    constr:    0.0000
     atom:   14    charge:    3.1057    magn:   -0.0000    constr:    0.0000
     atom:   15    charge:    2.1041    magn:    0.0000    constr:    0.0000
     atom:   16    charge:    2.1126    magn:   -0.0000    constr:    0.0000
     atom:   17    charge:    2.1016    magn:   -0.0000    constr:    0.0000
     atom:   18    charge:    2.1015    magn:   -0.0000    constr:    0.0000
     atom:   19    charge:    3.1169    magn:    0.0000    constr:    0.0000
     atom:   20    charge:    3.1206    magn:    0.0000    constr:    0.0000
     atom:   21    charge:    2.0739    magn:    0.0025    constr:    0.0000
     atom:   22    charge:    2.0945    magn:   -0.0001    constr:    0.0000
     atom:   23    charge:    2.0977    magn:    0.0000    constr:    0.0000
     atom:   24    charge:    2.0979    magn:    0.0001    constr:    0.0000
     atom:   25    charge:    3.1030    magn:   -0.0014    constr:    0.0000
     atom:   26    charge:    3.1270    magn:   -0.0003    constr:    0.0000
     atom:   27    charge:    2.0947    magn:    0.0000    constr:    0.0000
     atom:   28    charge:    2.1231    magn:    0.0000    constr:    0.0000
     atom:   29    charge:    2.1073    magn:   -0.0000    constr:    0.0000
     atom:   30    charge:    2.1074    magn:    0.0000    constr:    0.0000
     atom:   31    charge:    3.1087    magn:   -0.0001    constr:    0.0000
     atom:   32    charge:    3.1124    magn:   -0.0001    constr:    0.0000
     atom:   33    charge:    2.1094    magn:    0.0000    constr:    0.0000
     atom:   34    charge:    2.1054    magn:    0.0000    constr:    0.0000
     atom:   35    charge:    2.1068    magn:   -0.0000    constr:    0.0000
     atom:   36    charge:    2.1067    magn:   -0.0000    constr:    0.0000
     atom:   37    charge:    3.1139    magn:   -0.0000    constr:    0.0000
     atom:   38    charge:    3.1057    magn:   -0.0000    constr:    0.0000
     atom:   39    charge:    2.1040    magn:    0.0000    constr:    0.0000
     atom:   40    charge:    2.1126    magn:   -0.0000    constr:    0.0000
     atom:   41    charge:    2.1016    magn:   -0.0000    constr:    0.0000
     atom:   42    charge:    2.1015    magn:   -0.0000    constr:    0.0000
     atom:   43    charge:    3.1169    magn:    0.0000    constr:    0.0000
     atom:   44    charge:    3.1206    magn:    0.0000    constr:    0.0000
     atom:   45    charge:    2.0739    magn:    0.0025    constr:    0.0000
     atom:   46    charge:    2.0944    magn:   -0.0001    constr:    0.0000
     atom:   47    charge:    2.0977    magn:    0.0001    constr:    0.0000
     atom:   48    charge:    2.0979    magn:    0.0195    constr:    0.0000

     total cpu time spent up to now is      649.5 secs

     total energy              =   -2966.87782215 Ry
     Harris-Foulkes estimate   =   -2966.90450771 Ry
     estimated scf accuracy    <       0.52160967 Ry

     total magnetization       =     0.00 Bohr mag/cell
     absolute magnetization    =     0.06 Bohr mag/cell

     iteration # 12     ecut=    29.40 Ry     beta=0.05
     Davidson diagonalization with overlap
     ethr =  1.36E-04,  avg # of iterations =  1.6

     negative rho (up, down):  1.578E-02 1.574E-02
 
     Adding external electric field

     Computed dipole along edir(3) : 
        Dipole               -0.0764 Ry au,         -0.1942 Debye
        Dipole field         -0.0001 Ry au
 
        Potential amp.        0.0134 Ry
        Total length         46.3494 bohr
 
 
     Adding external electric field

     Computed dipole along edir(3) : 
        Dipole               -0.0764 Ry au,         -0.1942 Debye
        Dipole field         -0.0001 Ry au
 
        Potential amp.        0.0134 Ry
        Total length         46.3494 bohr
 
 
     Magnetic moment per site:
     atom:    1    charge:    3.1142    magn:   -0.0011    constr:    0.0000
     atom:    2    charge:    3.1138    magn:   -0.0002    constr:    0.0000
     atom:    3    charge:    2.0951    magn:   -0.0000    constr:    0.0000
     atom:    4    charge:    2.1158    magn:    0.0001    constr:    0.0000
     atom:    5    charge:    2.1082    magn:    0.0000    constr:    0.0000
     atom:    6    charge:    2.1083    magn:    0.0000    constr:    0.0000
     atom:    7    charge:    3.1120    magn:   -0.0001    constr:    0.0000
     atom:    8    charge:    3.1056    magn:   -0.0001    constr:    0.0000
     atom:    9    charge:    2.1125    magn:    0.0001    constr:    0.0000
     atom:   10    charge:    2.1110    magn:    0.0000    constr:    0.0000
     atom:   11    charge:    2.1099    magn:   -0.0000    constr:    0.0000
     atom:   12    charge:    2.1098    magn:   -0.0000    constr:    0.0000
     atom:   13    charge:    3.1046    magn:    0.0000    constr:    0.0000
     atom:   14    charge:    3.1028    magn:   -0.0000    constr:    0.0000
     atom:   15    charge:    2.1118    magn:    0.0000    constr:    0.0000
     atom:   16    charge:    2.1139    magn:    0.0000    constr:    0.0000
     atom:   17    charge:    2.1060    magn:    0.0000    constr:    0.0000
     atom:   18    charge:    2.1058    magn:    0.0000    constr:    0.0000
     atom:   19    charge:    3.1074    magn:    0.0000    constr:    0.0000
     atom:   20    charge:    3.1072    magn:    0.0000    constr:    0.0000
     atom:   21    charge:    2.0766    magn:    0.0017    constr:    0.0000
     atom:   22    charge:    2.1148    magn:   -0.0001    constr:    0.0000
     atom:   23    charge:    2.0994    magn:   -0.0000    constr:    0.0000
     atom:   24    charge:    2.0995    magn:    0.0001    constr:    0.0000
     atom:   25    charge:    3.1142    magn:   -0.0011    constr:    0.0000
     atom:   26    charge:    3.1138    magn:   -0.0003    constr:    0.0000
     atom:   27    charge:    2.0951    magn:   -0.0000    constr:    0.0000
     atom:   28    charge:    2.1158    magn:    0.0001    constr:    0.0000
     atom:   29    charge:    2.1082    magn:    0.0000    constr:    0.0000
     atom:   30    charge:    2.1083    magn:    0.0000    constr:    0.0000
     atom:   31    charge:    3.1120    magn:   -0.0001    constr:    0.0000
     atom:   32    charge:    3.1056    magn:   -0.0001    constr:    0.0000
     atom:   33    charge:    2.1125    magn:    0.0001    constr:    0.0000
     atom:   34    charge:    2.1110    magn:    0.0000    constr:    0.0000
     atom:   35    charge:    2.1099    magn:   -0.0000    constr:    0.0000
     atom:   36    charge:    2.1098    magn:   -0.0000    constr:    0.0000
     atom:   37    charge:    3.1046    magn:    0.0000    constr:    0.0000
     atom:   38    charge:    3.1028    magn:   -0.0000    constr:    0.0000
     atom:   39    charge:    2.1118    magn:    0.0000    constr:    0.0000
     atom:   40    charge:    2.1139    magn:    0.0000    constr:    0.0000
     atom:   41    charge:    2.1060    magn:    0.0000    constr:    0.0000
     atom:   42    charge:    2.1058    magn:    0.0000    constr:    0.0000
     atom:   43    charge:    3.1074    magn:    0.0000    constr:    0.0000
     atom:   44    charge:    3.1072    magn:    0.0000    constr:    0.0000
     atom:   45    charge:    2.0765    magn:    0.0017    constr:    0.0000
     atom:   46    charge:    2.1149    magn:   -0.0001    constr:    0.0000
     atom:   47    charge:    2.0994    magn:    0.0000    constr:    0.0000
     atom:   48    charge:    2.0996    magn:    0.0173    constr:    0.0000

     total cpu time spent up to now is      698.1 secs

     total energy              =   -2966.77198158 Ry
     Harris-Foulkes estimate   =   -2966.88219666 Ry
     estimated scf accuracy    <       0.39600527 Ry

     total magnetization       =     0.00 Bohr mag/cell
     absolute magnetization    =     0.05 Bohr mag/cell

     iteration # 13     ecut=    29.40 Ry     beta=0.05
     Davidson diagonalization with overlap
     ethr =  1.03E-04,  avg # of iterations =  5.6

     negative rho (up, down):  1.627E-02 1.620E-02
 
     Adding external electric field

     Computed dipole along edir(3) : 
        Dipole                0.1789 Ry au,          0.4547 Debye
        Dipole field          0.0003 Ry au
 
        Potential amp.       -0.0313 Ry
        Total length         46.3494 bohr
 
 
     Adding external electric field

     Computed dipole along edir(3) : 
        Dipole                0.1789 Ry au,          0.4547 Debye
        Dipole field          0.0003 Ry au
 
        Potential amp.       -0.0313 Ry
        Total length         46.3494 bohr
 
 
     Magnetic moment per site:
     atom:    1    charge:    3.1069    magn:   -0.0016    constr:    0.0000
     atom:    2    charge:    3.1174    magn:   -0.0003    constr:    0.0000
     atom:    3    charge:    2.0844    magn:   -0.0000    constr:    0.0000
     atom:    4    charge:    2.1105    magn:    0.0001    constr:    0.0000
     atom:    5    charge:    2.0982    magn:    0.0001    constr:    0.0000
     atom:    6    charge:    2.0983    magn:    0.0000    constr:    0.0000
     atom:    7    charge:    3.1057    magn:   -0.0001    constr:    0.0000
     atom:    8    charge:    3.1047    magn:   -0.0001    constr:    0.0000
     atom:    9    charge:    2.1015    magn:    0.0000    constr:    0.0000
     atom:   10    charge:    2.0983    magn:    0.0000    constr:    0.0000
     atom:   11    charge:    2.0986    magn:    0.0000    constr:    0.0000
     atom:   12    charge:    2.0985    magn:   -0.0000    constr:    0.0000
     atom:   13    charge:    3.1044    magn:    0.0000    constr:    0.0000
     atom:   14    charge:    3.0998    magn:   -0.0000    constr:    0.0000
     atom:   15    charge:    2.0981    magn:    0.0000    constr:    0.0000
     atom:   16    charge:    2.1036    magn:   -0.0000    constr:    0.0000
     atom:   17    charge:    2.0941    magn:    0.0000    constr:    0.0000
     atom:   18    charge:    2.0940    magn:    0.0000    constr:    0.0000
     atom:   19    charge:    3.1077    magn:    0.0000    constr:    0.0000
     atom:   20    charge:    3.1099    magn:    0.0000    constr:    0.0000
     atom:   21    charge:    2.0574    magn:    0.0030    constr:    0.0000
     atom:   22    charge:    2.0946    magn:   -0.0001    constr:    0.0000
     atom:   23    charge:    2.0885    magn:    0.0000    constr:    0.0000
     atom:   24    charge:    2.0887    magn:    0.0002    constr:    0.0000
     atom:   25    charge:    3.1069    magn:   -0.0016    constr:    0.0000
     atom:   26    charge:    3.1174    magn:   -0.0004    constr:    0.0000
     atom:   27    charge:    2.0844    magn:   -0.0000    constr:    0.0000
     atom:   28    charge:    2.1105    magn:    0.0001    constr:    0.0000
     atom:   29    charge:    2.0982    magn:    0.0000    constr:    0.0000
     atom:   30    charge:    2.0983    magn:    0.0000    constr:    0.0000
     atom:   31    charge:    3.1057    magn:   -0.0001    constr:    0.0000
     atom:   32    charge:    3.1047    magn:   -0.0001    constr:    0.0000
     atom:   33    charge:    2.1015    magn:    0.0000    constr:    0.0000
     atom:   34    charge:    2.0983    magn:    0.0000    constr:    0.0000
     atom:   35    charge:    2.0986    magn:   -0.0000    constr:    0.0000
     atom:   36    charge:    2.0985    magn:   -0.0000    constr:    0.0000
     atom:   37    charge:    3.1044    magn:    0.0000    constr:    0.0000
     atom:   38    charge:    3.0998    magn:   -0.0000    constr:    0.0000
     atom:   39    charge:    2.0980    magn:    0.0000    constr:    0.0000
     atom:   40    charge:    2.1036    magn:   -0.0000    constr:    0.0000
     atom:   41    charge:    2.0941    magn:    0.0000    constr:    0.0000
     atom:   42    charge:    2.0939    magn:    0.0000    constr:    0.0000
     atom:   43    charge:    3.1077    magn:    0.0000    constr:    0.0000
     atom:   44    charge:    3.1099    magn:    0.0000    constr:    0.0000
     atom:   45    charge:    2.0574    magn:    0.0030    constr:    0.0000
     atom:   46    charge:    2.0945    magn:   -0.0001    constr:    0.0000
     atom:   47    charge:    2.0885    magn:    0.0001    constr:    0.0000
     atom:   48    charge:    2.0887    magn:    0.0156    constr:    0.0000

[...]
              0.162000675114912E+02
              0.132035868472143E+01
             -0.208833456386944E+00
             -0.839246379406386E+01
             -0.449249234626308E+02
              0.692180366033772E+01
             -0.775512772965932E+02
              0.424074189178325E+02
             -0.263400717134111E+02
             -0.101569301900308E+02
             -0.120348452705730E+02
              0.905227440274267E+01
             -0.106811931173649E+02
              0.177594497709386E+02
             -0.345091850811836E+02
              0.223179909857778E+02
              0.252128681089001E+02
              0.756642702398678E+01
              0.580622150785661E+01
              0.127586758798173E+02
              0.527351700023189E+01
              0.182555020514349E+02
             -0.440811957499361E+01
             -0.421536688258502E+02
              0.608712741348322E+01
             -0.166193276501799E+02
             -0.261359247824373E+01
              0.325965653371962E+02
             -0.494103599311385E+02
              0.711055168864107E+00
              0.157519260838586E+01
              0.567909086374422E+01
              0.197393835119239E+02
             -0.788952033465814E+01
              0.521818816644609E+02
              0.266899321395757E+02
             -0.103353308664328E+02
             -0.575807016237016E+01
              0.241359819148909E+01
              0.483779235079553E+02
             -0.330140266613022E+02
             -0.634476139901993E+02
              0.178485136029779E+02
             -0.689198697140321E+01
             -0.840046151960652E+01
              0.114584391013017E+02
              0.483314897163308E+02
              0.279414221284149E+02
             -0.104406718338903E+02
             -0.322087232189626E+02
             -0.540327968898109E+01
              0.179131158700728E+02
             -0.924194704809543E+01
             -0.463392270300239E+02
             -0.331085765988435E+01
             -0.588530184038702E+02
             -0.312590557074683E+02
              0.512053930485816E+02
             -0.320065509583764E+02
             -0.425165393550192E+02
             -0.319563607961082E+02
             -0.227492482867107E+02
              0.211188305650069E+02
              0.522565209957791E+02
             -0.428907462059561E+01
              0.168487114166974E+02
             -0.118745720678919E+02
             -0.430252078941636E+02
              0.297711231800226E+02
             -0.292251910838612E+02
              0.165065649984281E+02
              0.207631622164610E+02
             -0.707190314106037E+01
              0.243608238744738E+02
              0.256057690160503E+02
              0.703442637405120E+02
             -0.766118426244054E+01
             -0.314957807167424E+02
             -0.400106121589797E+02
             -0.106300124749436E+02
             -0.198923649057317E+02
              0.600096942470948E+02
             -0.271439011471382E+02
              0.656164439613668E+01
              0.320166474299862E+01
             -0.140447319300415E+02
             -0.518451101665614E+02
             -0.409852061715651E+01
              0.612777259905125E+02
              0.998304341142439E+01
              0.455285778858067E+01
             -0.350778606353436E+02
             -0.363532757914091E+02
             -0.853133682148304E+01
              0.288786876240696E+02
             -0.149727338948345E+02
              0.645776422002976E+02
             -0.283453832331685E+02
              0.114936809710187E+02
             -0.105489566365276E+02
             -0.410071700313032E+02
              0.313783373753790E+01
             -0.330328359033886E+02
             -0.462938006235132E+02
              0.630141202399108E+01
              0.128396020599772E+01
              0.315186410331287E+02
              0.146590665667407E+02
             -0.210621599369607E+02
              0.141386670176860E+02
             -0.532522530273810E+02
             -0.313822276736690E+02
              0.568642480362098E+02
              0.591573162751241E+01
             -0.617556003254526E+01
             -0.182057264869365E+02
             -0.204491224416654E+01
             -0.600343910136365E+01
              0.548654913372499E+02
              0.254483958458216E+02
             -0.718400548457464E+01
             -0.235009172398014E+01
             -0.244298635698988E+02
             -0.108899484713273E+02
             -0.401331513899026E+02
              0.300537369690016E+02
              0.453035072988837E+01
              0.672466925967842E+01
              0.106435103393229E+02
             -0.541330573089863E+01
             -0.124507613163482E+02
              0.220215313106944E+01
             -0.674920456304584E+02
             -0.935437744289962E+01
             -0.559449625301008E+01
             -0.458154134147631E+01
              0.321281463381722E+02
              0.396282517097450E+02
              0.105347267275145E+02
             -0.588355236290805E+02
              0.396205775428858E+02
             -0.133276914119946E+02
             -0.236436312118025E+02
             -0.543765511188872E+02
             -0.187416373715026E+02
              0.382006802568207E+02
              0.185399943425327E+02
              0.642197776645787E+01
              0.202391211676864E+02
             -0.353788348001734E+02
             -0.292702137045840E+02
              0.357703392837991E+02
              0.247387289225579E+02
              0.308424890739091E+02
              0.201609930163930E+01
              0.501591032724596E+01
              0.341087594513671E+02
              0.614512819281913E+02
             -0.134564198310508E+02
              0.243570507607667E+02
             -0.143489736488410E+02
             -0.264910496611221E+02
             -0.214805288427787E+02
             -0.201366642787557E+02
             -0.864182699705646E+01
             -0.310949283541820E+02
             -0.130825477403963E+02
             -0.842895520014969E+02
              0.199980091002682E+02
              0.143414560846306E+02
             -0.241901973086777E+01
             -0.247629334256316E+02
             -0.129311077533492E+02
             -0.340602597885483E+02
              0.547621354346265E+01
              0.502307640330030E+02
             -0.124408816449774E+02
             -0.107000278426194E+02
              0.131529906405230E+02
             -0.306107419385083E+02
              0.535731377481652E+02
              0.948393800359379E+01
              0.815617737923168E+01
              0.320126460528134E+02
             -0.101763707137101E+01
              0.355163841356878E+02
              0.110537089267915E+02
             -0.301571584884276E+01
              0.656532511385453E+01
             -0.305978070271993E+01
              0.422759355319295E+02
              0.529643194144779E+01
              0.111432401689064E+02
             -0.573414576539346E+01
              0.781952955359486E+01
             -0.577043932635075E+02
             -0.225753481938390E+02
             -0.298942422621943E+02
              0.314271204020068E+02
             -0.198614267835044E+02
             -0.377840556513202E+02
              0.370689202053281E+02
             -0.767155226102484E+01
              0.262637615524499E+02
             -0.566799464376905E+02
              0.129323890722799E+02
              0.396735195273951E+01
              0.390765220680260E+01
             -0.657710320980911E+01
             -0.410751786998469E+01
              0.308600033528792E+02
              0.638649656880688E+00
             -0.317874571015785E+02
             -0.112363978163863E+02
              0.142717845308304E+02
             -0.717906179734903E+02
             -0.558532396298363E+02
              0.645831602509674E+00
              0.849225183394103E+01
             -0.287151120499190E+02
             -0.924579655931552E+00
              0.658131090011478E+02
              0.194613859420359E+02
             -0.341891097099210E+02
              0.572228573811455E+01
             -0.645772739447827E+01
              0.688300594563779E+01
             -0.216754328583184E+02
              0.131383605395890E+02
              0.163654606805288E+02
             -0.471649891364001E+01
              0.700697574554220E+02
             -0.474354018665507E+01
             -0.202610263863986E+02
              0.153632838503804E+02
              0.262312882157718E+02
             -0.211385835099922E+02
             -0.133055498668286E+01
              0.602601701900753E+02
             -0.119269524682079E+01
              0.353036575154202E+02
              0.922055782977526E+01
             -0.506438139918474E+01
             -0.137133990239396E+02
              0.332522546427148E+02
             -0.360002780713700E+02
             -0.957264598945983E+00
             -0.109565629143160E+02
             -0.255570313340150E+02
              0.909086164219700E+01
              0.153172275895183E+02
              0.299237546547369E+01
             -0.739603612841506E+00
             -0.250538329853276E+02
              0.107475074857533E+02
             -0.980786719820287E+00
             -0.150316120627183E+02
             -0.126576860589714E+02
              0.115735711437519E+02
             -0.140975720413002E+01
             -0.233221293521926E+02
             -0.664655674859753E+02
              0.514705663465034E+01
              0.120623679534542E+02
             -0.297949337598986E+02
             -0.144599783932179E+02
              0.510878036665310E+02
              0.624227891621703E+01
              0.243914225075005E+02
              0.491171258956030E+01
              0.241263581442414E+02
              0.245910976956679E+01
             -0.247161740954468E+02
             -0.468532723010222E+01
              0.421581320249442E+01
              0.186853549664461E+02
              0.483158316138641E+02
              0.308153468399743E+02
              0.184640649485692E+01
              0.942511134983314E+01
              0.378811066429672E+02
              0.169232156828461E+02
             -0.443635162131920E+02
             -0.171940890537231E+02
              0.735374190191311E+01
              0.563880056637458E+01
              0.159313261495239E+02
             -0.323999932740056E+02
              0.582243374925866E+01
              0.253605468553218E+02
              0.305956453239090E+02
             -0.275327114159447E+02
             -0.461160323235333E+00
             -0.171316684095763E+01
             -0.105968999023833E+02
             -0.186780456615984E+02
             -0.100480749346033E+02
             -0.473073682657051E+01
              0.578863083155176E+01
              0.258568851617860E+02
             -0.198741925618667E+02
              0.498236300907366E+02
              0.218709940148733E+02
              0.160158955322150E+02
              0.217307943319661E+02
              0.172130661043705E+02
              0.213514305827767E+02
              0.339449959499328E+02
             -0.283984778889431E+02
              0.389470704915662E+02
             -0.702596729985626E+02
              0.195593008491369E+02
             -0.667148954700824E+02
              0.517641817067118E+02
              0.466719981453598E+02
             -0.643308623610631E+01
             -0.301195141159949E+02
             -0.265713226767500E+02
             -0.348534414239069E+02
             -0.397405757217003E+02
              0.352529385455218E+02
              0.263188975153522E+02
              0.152419531371778E+02
              0.180589621789813E+02
              0.266983008086054E+02
             -0.247912047211827E+02
             -0.114122631928633E+02
              0.342205900757234E+02
             -0.732377453889100E+01
              0.320732052392427E+02
              0.464855174340249E+02
             -0.276894426934115E+01
             -0.455834265341762E+02
              0.171928181456917E+01
             -0.403794647968883E+00
             -0.632479907008110E+01
              0.128938606904524E+01
             -0.409422062306431E+02
             -0.864779141727196E+01
              0.577353145643062E+01
              0.692365131510425E+01
              0.307735872297780E+02
             -0.255950028455241E+02
              0.351723767871946E+02
             -0.247873663230197E+02
              0.154584690487083E+02
              0.254103943931175E+02
 
 BEEF-vdW xc energy contributions
           1 :   -463.918837061567     
           2 :    407.978097467835     
           3 :   -316.501998090044     
           4 :    218.576534090768     
           5 :   -137.719078123236     
           6 :    83.7658472302289     
           7 :   -53.5439500062400     
           8 :    37.3624547953698     
           9 :   -26.0569186986574     
          10 :    14.8028932145770     
          11 :   -3.00914960315725     
          12 :   -8.01766731549532     
          13 :    17.2394222914120     
          14 :   -24.5730090244467     
          15 :    30.4292511937415     
          16 :   -35.0659042505322     
          17 :    38.3286117420592     
          18 :   -39.8199225282371     
          19 :    39.2267750439587     
          20 :   -36.5525515105903     
          21 :    32.1382849918042     
          22 :   -26.5371373151045     
          23 :    20.3771997019398     
          24 :   -14.2421307795861     
          25 :    8.53751445015661     
          26 :   -3.40340825872539     
          27 :   -1.24993878468388     
          28 :    5.58815602859681     
          29 :   -9.67934787945097     
          30 :    13.4103093930758     
          31 :   -51.6066371514779     
          32 :   -35.0491962896448     

     Forces acting on atoms (Ry/au):


     negative rho (up, down):  1.165E-02 1.165E-02
     atom    1 type  1   force =     0.00008251   -0.00008542    0.14880020
     atom    2 type  1   force =    -0.00008873   -0.00008105   -0.17066885
     atom    3 type  2   force =     0.00004554    0.00001116   -0.05971971
     atom    4 type  2   force =     0.00001304   -0.00011416    0.04105010
     atom    5 type  2   force =    -0.02721061   -0.00002700    0.00398194
     atom    6 type  2   force =     0.02711799    0.00048430    0.00391752
     atom    7 type  1   force =    -0.00002042   -0.00041094    0.00026360
     atom    8 type  1   force =     0.00000618   -0.00004449    0.00067545
     atom    9 type  2   force =    -0.00002647    0.00000148    0.00051657
     atom   10 type  2   force =    -0.00001409   -0.00000249   -0.00071831
     atom   11 type  2   force =     0.00030677   -0.00000938   -0.00104817
     atom   12 type  2   force =    -0.00052659   -0.00000399   -0.00108196
     atom   13 type  1   force =     0.00024938   -0.00000351   -0.00039775
     atom   14 type  1   force =     0.00021670    0.00002128   -0.00045656
     atom   15 type  2   force =    -0.00002030    0.00000317   -0.00005071
     atom   16 type  2   force =    -0.00003069    0.00000455    0.00107938
     atom   17 type  2   force =     0.00053115    0.00000085    0.00039078
     atom   18 type  2   force =    -0.00054438   -0.00000268    0.00040111
     atom   19 type  1   force =    -0.00003870    0.00000164    0.00009708
     atom   20 type  1   force =    -0.00000445    0.00027820   -0.00014341
     atom   21 type  2   force =     0.00005877    0.00006201    0.10071174
     atom   22 type  2   force =    -0.00001494   -0.00000138    0.00122515
     atom   23 type  2   force =    -0.07217561   -0.00016094   -0.03428483
     atom   24 type  2   force =     0.07208750    0.00030202   -0.03432642
     atom   25 type  1   force =     0.00008253   -0.00008543    0.14880436
     atom   26 type  1   force =    -0.00008862   -0.00008049   -0.17066885
     atom   27 type  2   force =     0.00004553    0.00001120   -0.05971762
     atom   28 type  2   force =     0.00001304   -0.00011419    0.04104772
     atom   29 type  2   force =    -0.02721062   -0.00002684    0.00398193
     atom   30 type  2   force =     0.02711800    0.00048447    0.00391750
     atom   31 type  1   force =    -0.00002041   -0.00041105    0.00025602
     atom   32 type  1   force =     0.00000621   -0.00001038    0.00067541
     atom   33 type  2   force =    -0.00002641    0.00000148    0.00052690
     atom   34 type  2   force =    -0.00001408   -0.00000245   -0.00070569
     atom   35 type  2   force =     0.00030680    0.00001201   -0.00104820
     atom   36 type  2   force =    -0.00052662    0.00001706   -0.00108200
     atom   37 type  1   force =     0.00024967   -0.00000305   -0.00053932
     atom   38 type  1   force =     0.00021667   -0.00002761   -0.00045658
     atom   39 type  2   force =    -0.00002016    0.00000324   -0.00017748
     atom   40 type  2   force =    -0.00003066    0.00000452    0.00109295
     atom   41 type  2   force =     0.00053126    0.00003977    0.00039082
     atom   42 type  2   force =    -0.00054444    0.00003622    0.00040115
     atom   43 type  1   force =    -0.00003870    0.00000195    0.00011859
     atom   44 type  1   force =    -0.00000433   -0.00027236   -0.00014344
     atom   45 type  2   force =     0.00005877    0.00006197    0.10071186
     atom   46 type  2   force =    -0.00001493   -0.00000128    0.00101181
     atom   47 type  2   force =    -0.07217575   -0.00016248   -0.03428487
     atom   48 type  3   force =     0.07208770    0.00030047   -0.03432691

     Total force =     0.402342     Total SCF correction =     0.000398
 !ASE

     Writing output data file calc.save
 
     init_run     :     27.19s CPU     27.96s WALL (       1 calls)
     electrons    :   2685.49s CPU   2718.96s WALL (       1 calls)
     forces       :     27.30s CPU     27.34s WALL (       1 calls)

     Called by init_run:
     wfcinit      :     19.96s CPU     20.28s WALL (       1 calls)
     potinit      :      1.34s CPU      1.42s WALL (       1 calls)

     Called by electrons:
     c_bands      :   2107.60s CPU   2136.73s WALL (      42 calls)
     sum_band     :    355.94s CPU    356.93s WALL (      42 calls)
     v_of_rho     :     29.55s CPU     31.28s WALL (      43 calls)
     newd         :    174.32s CPU    174.36s WALL (      43 calls)
     mix_rho      :      1.60s CPU      1.66s WALL (      42 calls)
     vdW_energy   :      7.01s CPU      7.90s WALL (      78 calls)
     vdW_ffts     :     13.55s CPU     14.48s WALL (     156 calls)
     vdW_v        :      5.40s CPU      5.52s WALL (      78 calls)

     Called by c_bands:
     init_us_2    :     16.37s CPU     16.41s WALL (    1720 calls)
     cegterg      :   2040.59s CPU   2069.74s WALL (     840 calls)

     Called by *egterg:
     h_psi        :    947.47s CPU    950.45s WALL (    3992 calls)
     s_psi        :    176.04s CPU    175.92s WALL (    3992 calls)
     g_psi        :      2.31s CPU      2.33s WALL (    3132 calls)
     cdiaghg      :    570.38s CPU    569.86s WALL (    3972 calls)

     Called by h_psi:
     add_vuspsi   :    180.53s CPU    180.48s WALL (    3992 calls)

     General routines
     calbec       :    256.69s CPU    257.61s WALL (    4852 calls)
     fft          :     26.92s CPU     28.61s WALL (    5718 calls)
     ffts         :      0.18s CPU      0.18s WALL (     170 calls)
     fftw         :    612.93s CPU    613.61s WALL (  967934 calls)
     interpolate  :      0.97s CPU      1.02s WALL (     170 calls)
     davcio       :      0.02s CPU      0.51s WALL (      20 calls)
 
     Parallel routines
     fft_scatter  :    157.16s CPU    157.63s WALL (  973822 calls)
 
     PWSCF        : 45m44.41s CPU    46m21.72s WALL

 
   This run was terminated on:  11:52:17   4Feb2018            

=------------------------------------------------------------------------------=
   JOB DONE.
=------------------------------------------------------------------------------=
