  python dir          : /gpfs/pace1/project/chbe-medford/medford-share/gits/frozen/ben_espresso_8_24_2017/espresso
  espresso dir        : /nv/hp22/amedford6/medford-shared/builds/espresso/5.1.r11289-pybeef/intel-16.0+mvapich2-2.2+mkl-11.3/espresso-5.1.r11289-pybeef/bin
  pseudo dir          : /gpfs/pace1/project/chbe-medford/medford-share/data/pseudos/SSSP_eff_PBE
  ase-espresso py git : GITVERSION



     Program PWSCF v.5.1rc2 starts on  4Feb2018 at 14:41:29 

     This program is part of the open-source Quantum ESPRESSO suite
     for quantum simulation of materials; please cite
         "P. Giannozzi et al., J. Phys.:Condens. Matter 21 395502 (2009);
          URL http://www.quantum-espresso.org", 
     in publications or presentations arising from this work. More details at
     http://www.quantum-espresso.org/quote

     Parallel version (MPI), running on    14 processors
     R & G space division:  proc/nbgrp/npool/nimage =      14
     Reading input from pw.inp
     Message from routine read_cards :
     DEPRECATED: no units specified in CELL_PARAMETERS card

     Current dimensions of program PWSCF are:
     Max number of different atomic species (ntypx) = 10
     Max number of k-points (npk) =  40000
     Max angular momentum in pseudopotentials (lmaxx) =  3
     Presently no symmetry can be used with electric field


     **************************************************************************
     Initializing libbeef V0.1.2 with the BEEF-vdW functional.
     Citation: Wellendorff et al., PRB 85, 235149 (2012).
     **************************************************************************


     IMPORTANT: XC functional enforced from input :
     Exchange-correlation      = BEEF-VDW ( 1  4 27 13 2)
     Any further DFT definition will be discarded
     Please, verify this is what you really want


     Subspace diagonalization in iterative solution of the eigenvalue problem:
     a serial algorithm will be used

 
     Parallelization info
     --------------------
     sticks:   dense  smooth     PW     G-vecs:    dense   smooth      PW
     Min         233      94     27                40481    10226    1565
     Max         234      95     28                40494    10264    1575
     Sum        3275    1317    379               566857   143421   21985
 
     Generating pointlists ...
     new r_m :   0.4125 (alat units)  0.7795 (a.u.) for type    1
     new r_m :   0.4125 (alat units)  0.7795 (a.u.) for type    2
     new r_m :   0.4125 (alat units)  0.7795 (a.u.) for type    3
     new r_m :   0.4125 (alat units)  0.7795 (a.u.) for type    4


     bravais-lattice index     =            0
     lattice parameter (alat)  =       1.8897  a.u.
     unit-cell volume          =    6658.9804 (a.u.)^3
     number of atoms/cell      =           50
     number of atomic types    =            4
     number of electrons       =       394.00
     number of Kohn-Sham states=          207
     kinetic-energy cutoff     =      29.3995  Ry
     charge density cutoff     =     293.9946  Ry
     convergence threshold     =      7.3E-08
     mixing beta               =       0.0500
     number of iterations used =            8  plain     mixing
     Exchange-correlation      = BEEF-VDW ( 1  4 27 13 2)
     nstep                     =           50


     celldm(1)=   1.889726  celldm(2)=   0.000000  celldm(3)=   0.000000
     celldm(4)=   0.000000  celldm(5)=   0.000000  celldm(6)=   0.000000

     crystal axes: (cart. coord. in units of alat)
               a(1) = (   6.579727   0.000000   0.000000 )  
               a(2) = (  -0.000775   5.961596   0.000000 )  
               a(3) = (   0.000000   0.000000  25.155947 )  

     reciprocal axes: (cart. coord. in units 2 pi/alat)
               b(1) = (  0.151982  0.000020  0.000000 )  
               b(2) = (  0.000000  0.167740  0.000000 )  
               b(3) = (  0.000000  0.000000  0.039752 )  


     PseudoPot. # 1 for Ti read from file:
     /gpfs/pace1/project/chbe-medford/medford-share/data/pseudos/SSSP_eff_PBE/Ti.UPF
     MD5 check sum: 88a00a6731bd790ddea75d31a80cb452
     Pseudo is Ultrasoft + core correction, Zval = 12.0
     Generated by new atomic code, or converted to UPF format
     Using radial grid of  851 points,  6 beta functions with: 
                l(1) =   0
                l(2) =   0
                l(3) =   1
                l(4) =   1
                l(5) =   2
                l(6) =   2
     Q(r) pseudized with  6 coefficients,  rinner =    1.000   1.000   1.000
                                                       1.000   1.000

     PseudoPot. # 2 for O  read from file:
     /gpfs/pace1/project/chbe-medford/medford-share/data/pseudos/SSSP_eff_PBE/O.UPF
     MD5 check sum: 734c27235a0248c51dbae37a1fbe46ec
     Pseudo is Ultrasoft + core correction, Zval =  6.0
     Generated by new atomic code, or converted to UPF format
     Using radial grid of  737 points,  5 beta functions with: 
                l(1) =   0
                l(2) =   0
                l(3) =   1
                l(4) =   1
                l(5) =   2
     Q(r) pseudized with  8 coefficients,  rinner =    0.900   0.900   0.900
                                                       0.900   0.900

     PseudoPot. # 3 for  N read from file:
     /gpfs/pace1/project/chbe-medford/medford-share/data/pseudos/SSSP_eff_PBE/N.UPF
     MD5 check sum: 1fde47ee573fe9ed3106b9b4217eb757
     Pseudo is Ultrasoft + core correction, Zval =  5.0
     Generated using "atomic" code by A. Dal Corso  v.5.1
     Using radial grid of 1085 points,  4 beta functions with: 
                l(1) =   0
                l(2) =   0
                l(3) =   1
                l(4) =   1
     Q(r) pseudized with 0 coefficients 


     PseudoPot. # 4 for  N read from file:
     /gpfs/pace1/project/chbe-medford/medford-share/data/pseudos/SSSP_eff_PBE/N.UPF
     MD5 check sum: 1fde47ee573fe9ed3106b9b4217eb757
     Pseudo is Ultrasoft + core correction, Zval =  5.0
     Generated using "atomic" code by A. Dal Corso  v.5.1
     Using radial grid of 1085 points,  4 beta functions with: 
                l(1) =   0
                l(2) =   0
                l(3) =   1
                l(4) =   1
     Q(r) pseudized with 0 coefficients 


     vdW kernel table read from file vdW_kernel_table
     MD5 check sum: 88c60d17101ec99b63477f765c8de84d

     atomic species   valence    mass     pseudopotential
        Ti1           12.00    47.86700     Ti( 1.00)
        O1             6.00    15.99900     O ( 1.00)
        N1             5.00    14.00700      N( 1.00)
        N2             5.00    14.00700      N( 1.00)

     Starting magnetic structure 
     atomic species   magnetization
        Ti1          0.000
        O1           0.000
        N1           0.000
        N2           0.020

     No symmetry found



   Cartesian axes

     site n.     atom                  positions (alat units)
         1           Ti1 tau(   1) = (   0.0004258   2.9801865   6.0000000  )
         2           Ti1 tau(   2) = (   3.2906075   1.4906267   6.0002472  )
         3           O1  tau(   3) = (   0.0006271   0.0005054   7.9858123  )
         4           O1  tau(   4) = (   3.2906025   0.0005020   7.3038282  )
         5           O1  tau(   5) = (   4.5942328   1.4918067   9.2879030  )
         6           O1  tau(   6) = (   1.9868534   1.4903216   9.2879459  )
         7           Ti1 tau(   7) = (   3.2908567   2.9645546   9.1668691  )
         8           Ti1 tau(   8) = (   0.0014339   1.4909274   9.3851580  )
         9           O1  tau(   9) = (   3.2877030   0.0008576  11.3472349  )
        10           O1  tau(  10) = (   0.0014746   0.0007646  10.5668687  )
        11           O1  tau(  11) = (   1.2959634   1.4923133  12.6510834  )
        12           O1  tau(  12) = (   5.2784491   1.4913965  12.6474455  )
        13           Ti1 tau(  13) = (   0.0022471   2.9824501  12.8368376  )
        14           Ti1 tau(  14) = (   3.2943261   1.4933855  12.5001830  )
        15           O1  tau(  15) = (   6.5769495   0.0006347  14.6669616  )
        16           O1  tau(  16) = (   3.2877269   0.0006899  13.9223953  )
        17           O1  tau(  17) = (   4.5299256   1.4813584  16.0705288  )
        18           O1  tau(  18) = (   2.0420557   1.4834167  16.0693347  )
        19           Ti1 tau(  19) = (   3.2874157   2.9816287  15.7605934  )
        20           Ti1 tau(  20) = (   6.5739391   1.4910946  16.1802624  )
        21           O1  tau(  21) = (   3.2904802   0.0005063   4.7018136  )
        22           O1  tau(  22) = (   6.5774950   0.0016844  17.2512770  )
        23           O1  tau(  23) = (   1.3043587   1.4918075   6.0039043  )
        24           O1  tau(  24) = (   5.2767064   1.4903225   6.0039473  )
        25           Ti1 tau(  25) = (   0.0000382   5.9609847   6.0000000  )
        26           Ti1 tau(  26) = (   3.2902200   4.4714249   6.0002472  )
        27           O1  tau(  27) = (   0.0002396   2.9813036   7.9858123  )
        28           O1  tau(  28) = (   3.2902150   2.9813002   7.3038282  )
        29           O1  tau(  29) = (   4.5938453   4.4726049   9.2879030  )
        30           O1  tau(  30) = (   1.9864658   4.4711199   9.2879459  )
        31           Ti1 tau(  31) = (   3.2903144   5.9453154   9.1676577  )
        32           Ti1 tau(  32) = (   0.0010438   4.4716374   9.3851509  )
        33           O1  tau(  33) = (   3.2876715   2.9813990  11.3493084  )
        34           O1  tau(  34) = (   0.0006077   2.9815001  10.5660994  )
        35           O1  tau(  35) = (   1.2955437   4.4714632  12.6506814  )
        36           O1  tau(  36) = (   5.2780891   4.4721096  12.6470212  )
        37           Ti1 tau(  37) = (   0.0024872   0.0015542  12.8342709  )
        38           Ti1 tau(  38) = (   3.2939538   4.4699068  12.5000469  )
        39           O1  tau(  39) = (   6.5748649   2.9819133  14.6698328  )
        40           O1  tau(  40) = (   3.2891736   2.9819321  13.9460428  )
        41           O1  tau(  41) = (   4.5294256   4.4825850  16.0712589  )
        42           O1  tau(  42) = (   2.0418094   4.4802762  16.0701524  )
        43           Ti1 tau(  43) = (   3.2831387   0.0008272  15.7202797  )
        44           Ti1 tau(  44) = (   6.5735353   4.4746085  16.1804017  )
        45           O1  tau(  45) = (   3.2900926   2.9813045   4.7018136  )
        46           O1  tau(  46) = (   6.5744342   2.9822063  17.2503093  )
        47           O1  tau(  47) = (   1.3039711   4.4726057   6.0039043  )
        48           O1  tau(  48) = (   5.2763189   4.4711207   6.0039473  )
        49           N1  tau(  49) = (   3.1889267   3.0014917  19.6531967  )
        50           N2  tau(  50) = (   3.2706996   2.9842052  18.5462167  )

     number of k points=    20  Fermi-Dirac smearing, width (Ry)=  0.0073
                       cart. coord. in units 2pi/alat
        k(    1) = (   0.0000000   0.0000000   0.0000000), wk =   0.0625000
        k(    2) = (   0.0000000   0.0419351   0.0000000), wk =   0.1250000
        k(    3) = (   0.0000000  -0.0838702   0.0000000), wk =   0.0625000
        k(    4) = (   0.0379955   0.0000049   0.0000000), wk =   0.1250000
        k(    5) = (   0.0379955   0.0419400   0.0000000), wk =   0.1250000
        k(    6) = (   0.0379955  -0.0838652   0.0000000), wk =   0.1250000
        k(    7) = (   0.0379955  -0.0419301   0.0000000), wk =   0.1250000
        k(    8) = (  -0.0759910  -0.0000099   0.0000000), wk =   0.0625000
        k(    9) = (  -0.0759910   0.0419252   0.0000000), wk =   0.1250000
        k(   10) = (  -0.0759910  -0.0838800   0.0000000), wk =   0.0625000
        k(   11) = (   0.0000000   0.0000000   0.0000000), wk =   0.0625000
        k(   12) = (   0.0000000   0.0419351   0.0000000), wk =   0.1250000
        k(   13) = (   0.0000000  -0.0838702   0.0000000), wk =   0.0625000
        k(   14) = (   0.0379955   0.0000049   0.0000000), wk =   0.1250000
        k(   15) = (   0.0379955   0.0419400   0.0000000), wk =   0.1250000
        k(   16) = (   0.0379955  -0.0838652   0.0000000), wk =   0.1250000
        k(   17) = (   0.0379955  -0.0419301   0.0000000), wk =   0.1250000
        k(   18) = (  -0.0759910  -0.0000099   0.0000000), wk =   0.0625000
        k(   19) = (  -0.0759910   0.0419252   0.0000000), wk =   0.1250000
        k(   20) = (  -0.0759910  -0.0838800   0.0000000), wk =   0.0625000

     Dense  grid:   566857 G-vectors     FFT dimensions: (  72,  64, 270)

     Smooth grid:   143421 G-vectors     FFT dimensions: (  45,  40, 180)

     Largest allocated arrays     est. size (Mb)     dimensions
        Kohn-Sham Wavefunctions         4.13 Mb     (    1309,  207)
        NL pseudopotentials            14.38 Mb     (    1309,  720)
        Each V/rho on FFT grid          2.81 Mb     (   92160,   2)
        Each G-vector array             0.31 Mb     (   40486)
        G-vector shells                 0.15 Mb     (   19900)
     Largest temporary arrays     est. size (Mb)     dimensions
        Auxiliary wavefunctions        16.54 Mb     (    1309,  828)
        Each subspace H/S matrix       10.46 Mb     (     828,  828)
        Each <psi_i|beta_j> matrix      2.27 Mb     (     720,  207)
        Arrays for rho mixing          11.25 Mb     (   92160,    8)

     Check: negative/imaginary core charge=   -0.000006    0.000000

     Initial potential from superposition of free atoms
     Check: negative starting charge=(component1):   -0.012615
     Check: negative starting charge=(component2):   -0.012615

     starting charge  377.99923, renormalised to  394.00000

     negative rho (up, down):  1.315E-02 1.315E-02


     ************************************************************************
     *
     * You are using vdW-DF for exchange-correlation in this calculation.
     * Please cite the following three references that made this development
     * possible:
     *
     *   M. Dion, H. Rydberg, E. Schroder, D. C. Langreth, and
     *   B. I. Lundqvist, Phys. Rev. Lett. 92, 246401 (2004).
     *
     *   T. Thonhauser, V. R. Cooper, S. Li, A. Puzder, P. Hyldgaard, and
     *   D. C. Langreth, Phys. Rev. B 76, 125112 (2007).
     *
     *   G. Roman-Perez and J. M. Soler, Phys. Rev. Lett. 103, 096102 (2009).
     *
     *
     * If you are using vdW-DF2, please also cite:
     *
     *   K. Lee, E. D. Murray, L. Kong, B. I. Lundqvist, and
     *   D. C. Langreth, Phys. Rev. B 82, 081101(R) (2010).
     *
     *
     * If you are calculating the stress with vdW-DF, please also cite:
     *
     *   R. Sabatini, E. Kucukbenli, B. Kolb, T. Thonhauser, and
     *   S. de Gironcoli, J. Phys.: Condens. Matter 24, 424209 (2012).
     *
     ************************************************************************

     Carrying out vdW-DF run using the following parameters:

     Nqs =      20    Nr_points =    1024   r_max =   100.000
     q_mesh =
               0.00001000     0.04494208     0.09755937     0.15916263
               0.23128650     0.31572767     0.41458969     0.53033537
               0.66584808     0.82450364     1.01025438     1.22772762
               1.48234092     1.78043706     2.12944203     2.53805004
               3.01644009     3.57652955     4.23227104     5.00000000

     Gradients computed in reciprocal space

     ************************************************************************


 
     Adding external electric field

     Computed dipole along edir(3) : 
        Dipole               -6.6553 Ry au,        -16.9161 Debye
        Dipole field         -0.0126 Ry au
 
        Potential amp.        1.1642 Ry
        Total length         46.3494 bohr
 
 
     Adding external electric field

     Computed dipole along edir(3) : 
        Dipole               -6.6553 Ry au,        -16.9161 Debye
        Dipole field         -0.0126 Ry au
 
        Potential amp.        1.1642 Ry
        Total length         46.3494 bohr
 
     Starting wfc are  296 atomic wfcs

     total cpu time spent up to now is       48.6 secs

     per-process dynamical memory:   151.8 Mb

     Self-consistent Calculation

     iteration #  1     ecut=    29.40 Ry     beta=0.05
     Davidson diagonalization with overlap
     ethr =  1.00E-02,  avg # of iterations =  2.2

     negative rho (up, down):  1.252E-02 1.252E-02
 
     Adding external electric field

     Computed dipole along edir(3) : 
        Dipole               29.6387 Ry au,         75.3340 Debye
        Dipole field          0.0559 Ry au
 
        Potential amp.       -5.1848 Ry
        Total length         46.3494 bohr
 
 
     Adding external electric field

     Computed dipole along edir(3) : 
        Dipole               29.6387 Ry au,         75.3340 Debye
        Dipole field          0.0559 Ry au
 
        Potential amp.       -5.1848 Ry
        Total length         46.3494 bohr
 
 
     Magnetic moment per site:
     atom:    1    charge:    3.2693    magn:    0.0000    constr:    0.0000
     atom:    2    charge:    3.2547    magn:   -0.0000    constr:    0.0000
     atom:    3    charge:    2.0995    magn:   -0.0000    constr:    0.0000
     atom:    4    charge:    2.1064    magn:    0.0000    constr:    0.0000
     atom:    5    charge:    2.0972    magn:    0.0000    constr:    0.0000
     atom:    6    charge:    2.0973    magn:    0.0000    constr:    0.0000
     atom:    7    charge:    3.2166    magn:   -0.0000    constr:    0.0000
     atom:    8    charge:    3.2010    magn:   -0.0000    constr:    0.0000
     atom:    9    charge:    2.1003    magn:    0.0000    constr:    0.0000
     atom:   10    charge:    2.0969    magn:   -0.0000    constr:    0.0000
     atom:   11    charge:    2.0962    magn:    0.0000    constr:    0.0000
     atom:   12    charge:    2.0964    magn:    0.0000    constr:    0.0000
     atom:   13    charge:    3.1889    magn:   -0.0000    constr:    0.0000
     atom:   14    charge:    3.1870    magn:   -0.0000    constr:    0.0000
     atom:   15    charge:    2.0887    magn:    0.0000    constr:    0.0000
     atom:   16    charge:    2.0984    magn:   -0.0000    constr:    0.0000
     atom:   17    charge:    2.0346    magn:    0.0000    constr:    0.0000
     atom:   18    charge:    2.0334    magn:    0.0000    constr:    0.0000
     atom:   19    charge:    3.1824    magn:    0.0000    constr:    0.0000
     atom:   20    charge:    3.1814    magn:    0.0000    constr:    0.0000
     atom:   21    charge:    2.0943    magn:    0.0000    constr:    0.0000
     atom:   22    charge:    2.0124    magn:   -0.0000    constr:    0.0000
     atom:   23    charge:    2.1007    magn:   -0.0000    constr:    0.0000
     atom:   24    charge:    2.1009    magn:   -0.0000    constr:    0.0000
     atom:   25    charge:    3.2694    magn:    0.0000    constr:    0.0000
     atom:   26    charge:    3.2547    magn:   -0.0000    constr:    0.0000
     atom:   27    charge:    2.0995    magn:    0.0000    constr:    0.0000
     atom:   28    charge:    2.1064    magn:   -0.0000    constr:    0.0000
     atom:   29    charge:    2.0972    magn:    0.0000    constr:    0.0000
     atom:   30    charge:    2.0973    magn:    0.0000    constr:    0.0000
     atom:   31    charge:    3.2162    magn:   -0.0000    constr:    0.0000
     atom:   32    charge:    3.2010    magn:   -0.0000    constr:    0.0000
     atom:   33    charge:    2.1005    magn:    0.0000    constr:    0.0000
     atom:   34    charge:    2.0970    magn:   -0.0000    constr:    0.0000
     atom:   35    charge:    2.0962    magn:    0.0000    constr:    0.0000
     atom:   36    charge:    2.0963    magn:    0.0000    constr:    0.0000
     atom:   37    charge:    3.1892    magn:   -0.0000    constr:    0.0000
     atom:   38    charge:    3.1868    magn:   -0.0000    constr:    0.0000
     atom:   39    charge:    2.0881    magn:   -0.0000    constr:    0.0000
     atom:   40    charge:    2.0972    magn:   -0.0000    constr:    0.0000
     atom:   41    charge:    2.0356    magn:    0.0000    constr:    0.0000
     atom:   42    charge:    2.0338    magn:    0.0000    constr:    0.0000
     atom:   43    charge:    3.1843    magn:    0.0000    constr:    0.0000
     atom:   44    charge:    3.1810    magn:    0.0000    constr:    0.0000
     atom:   45    charge:    2.0943    magn:    0.0000    constr:    0.0000
     atom:   46    charge:    2.0118    magn:    0.0000    constr:    0.0000
     atom:   47    charge:    2.1007    magn:   -0.0000    constr:    0.0000
     atom:   48    charge:    2.1009    magn:   -0.0000    constr:    0.0000
     atom:   49    charge:    1.2238    magn:    0.0013    constr:    0.0000
     atom:   50    charge:    1.2263    magn:    0.0228    constr:    0.0000

     total cpu time spent up to now is      208.2 secs

     total energy              =   -2816.71779927 Ry
     Harris-Foulkes estimate   =   -3019.66577042 Ry
     estimated scf accuracy    <    2105.68455405 Ry

     total magnetization       =     0.00 Bohr mag/cell
     absolute magnetization    =     0.01 Bohr mag/cell

     iteration #  2     ecut=    29.40 Ry     beta=0.05
     Davidson diagonalization with overlap
     ethr =  1.00E-02,  avg # of iterations = 13.9

     negative rho (up, down):  1.176E-02 1.176E-02
 
     Adding external electric field

     Computed dipole along edir(3) : 
        Dipole               -2.4194 Ry au,         -6.1495 Debye
        Dipole field         -0.0046 Ry au
 
        Potential amp.        0.4232 Ry
        Total length         46.3494 bohr
 
 
     Adding external electric field

     Computed dipole along edir(3) : 
        Dipole               -2.4194 Ry au,         -6.1495 Debye
        Dipole field         -0.0046 Ry au
 
        Potential amp.        0.4232 Ry
        Total length         46.3494 bohr
 
 
     Magnetic moment per site:
     atom:    1    charge:    3.2462    magn:    0.0000    constr:    0.0000
     atom:    2    charge:    3.2317    magn:   -0.0000    constr:    0.0000
     atom:    3    charge:    2.0805    magn:   -0.0000    constr:    0.0000
     atom:    4    charge:    2.0874    magn:    0.0000    constr:    0.0000
     atom:    5    charge:    2.0784    magn:    0.0000    constr:    0.0000
     atom:    6    charge:    2.0785    magn:    0.0000    constr:    0.0000
     atom:    7    charge:    3.2106    magn:   -0.0000    constr:    0.0000
     atom:    8    charge:    3.1948    magn:   -0.0000    constr:    0.0000
     atom:    9    charge:    2.0866    magn:    0.0000    constr:    0.0000
     atom:   10    charge:    2.0786    magn:    0.0000    constr:    0.0000
     atom:   11    charge:    2.0921    magn:    0.0000    constr:    0.0000
     atom:   12    charge:    2.0921    magn:    0.0000    constr:    0.0000
     atom:   13    charge:    3.1859    magn:   -0.0000    constr:    0.0000
     atom:   14    charge:    3.1830    magn:   -0.0000    constr:    0.0000
     atom:   15    charge:    2.0944    magn:    0.0000    constr:    0.0000
     atom:   16    charge:    2.1024    magn:    0.0000    constr:    0.0000
     atom:   17    charge:    2.0443    magn:    0.0000    constr:    0.0000
     atom:   18    charge:    2.0432    magn:    0.0000    constr:    0.0000
     atom:   19    charge:    3.2040    magn:    0.0000    constr:    0.0000
     atom:   20    charge:    3.2042    magn:    0.0000    constr:    0.0000
     atom:   21    charge:    2.0754    magn:    0.0000    constr:    0.0000
     atom:   22    charge:    2.0240    magn:    0.0000    constr:    0.0000
     atom:   23    charge:    2.0817    magn:   -0.0000    constr:    0.0000
     atom:   24    charge:    2.0819    magn:   -0.0000    constr:    0.0000
     atom:   25    charge:    3.2462    magn:    0.0000    constr:    0.0000
     atom:   26    charge:    3.2317    magn:   -0.0000    constr:    0.0000
     atom:   27    charge:    2.0805    magn:    0.0000    constr:    0.0000
     atom:   28    charge:    2.0874    magn:   -0.0000    constr:    0.0000
     atom:   29    charge:    2.0784    magn:    0.0000    constr:    0.0000
     atom:   30    charge:    2.0785    magn:    0.0000    constr:    0.0000
     atom:   31    charge:    3.2102    magn:   -0.0000    constr:    0.0000
     atom:   32    charge:    3.1948    magn:   -0.0000    constr:    0.0000
     atom:   33    charge:    2.0868    magn:    0.0000    constr:    0.0000
     atom:   34    charge:    2.0787    magn:   -0.0000    constr:    0.0000
     atom:   35    charge:    2.0920    magn:    0.0000    constr:    0.0000
     atom:   36    charge:    2.0921    magn:    0.0000    constr:    0.0000
     atom:   37    charge:    3.1862    magn:   -0.0000    constr:    0.0000
     atom:   38    charge:    3.1828    magn:   -0.0000    constr:    0.0000
     atom:   39    charge:    2.0937    magn:   -0.0000    constr:    0.0000
     atom:   40    charge:    2.1013    magn:   -0.0000    constr:    0.0000
     atom:   41    charge:    2.0454    magn:    0.0000    constr:    0.0000
     atom:   42    charge:    2.0435    magn:    0.0000    constr:    0.0000
     atom:   43    charge:    3.2056    magn:    0.0000    constr:    0.0000
     atom:   44    charge:    3.2038    magn:    0.0000    constr:    0.0000
     atom:   45    charge:    2.0754    magn:    0.0000    constr:    0.0000
     atom:   46    charge:    2.0235    magn:    0.0000    constr:    0.0000
     atom:   47    charge:    2.0817    magn:   -0.0000    constr:    0.0000
     atom:   48    charge:    2.0819    magn:   -0.0000    constr:    0.0000
     atom:   49    charge:    1.2359    magn:    0.0013    constr:    0.0000
     atom:   50    charge:    1.2383    magn:    0.0227    constr:    0.0000

     total cpu time spent up to now is      518.5 secs

     total energy              =   -2708.59877839 Ry
     Harris-Foulkes estimate   =   -3441.09837153 Ry
     estimated scf accuracy    <   40975.64853634 Ry

     total magnetization       =     0.06 Bohr mag/cell
     absolute magnetization    =     0.12 Bohr mag/cell

     iteration #  3     ecut=    29.40 Ry     beta=0.05
     Davidson diagonalization with overlap
     ethr =  1.00E-02,  avg # of iterations =  9.7

     negative rho (up, down):  1.180E-02 1.180E-02
 
     Adding external electric field

     Computed dipole along edir(3) : 
        Dipole               -3.7142 Ry au,         -9.4405 Debye
        Dipole field         -0.0070 Ry au
 
        Potential amp.        0.6497 Ry
        Total length         46.3494 bohr
 
 
     Adding external electric field

     Computed dipole along edir(3) : 
        Dipole               -3.7142 Ry au,         -9.4405 Debye
        Dipole field         -0.0070 Ry au
 
        Potential amp.        0.6497 Ry
        Total length         46.3494 bohr
 
 
     Magnetic moment per site:
     atom:    1    charge:    3.2421    magn:   -0.0000    constr:    0.0000
     atom:    2    charge:    3.2284    magn:   -0.0000    constr:    0.0000
     atom:    3    charge:    2.0850    magn:   -0.0000    constr:    0.0000
     atom:    4    charge:    2.0916    magn:   -0.0000    constr:    0.0000
     atom:    5    charge:    2.0849    magn:   -0.0000    constr:    0.0000
     atom:    6    charge:    2.0850    magn:   -0.0000    constr:    0.0000
     atom:    7    charge:    3.2070    magn:   -0.0000    constr:    0.0000
     atom:    8    charge:    3.1922    magn:   -0.0000    constr:    0.0000
     atom:    9    charge:    2.0934    magn:    0.0000    constr:    0.0000
     atom:   10    charge:    2.0858    magn:    0.0000    constr:    0.0000
     atom:   11    charge:    2.0967    magn:    0.0000    constr:    0.0000
     atom:   12    charge:    2.0968    magn:    0.0000    constr:    0.0000
     atom:   13    charge:    3.2001    magn:   -0.0000    constr:    0.0000
     atom:   14    charge:    3.1977    magn:    0.0000    constr:    0.0000
     atom:   15    charge:    2.0970    magn:    0.0000    constr:    0.0000
     atom:   16    charge:    2.1054    magn:    0.0000    constr:    0.0000
     atom:   17    charge:    2.0482    magn:    0.0000    constr:    0.0000
     atom:   18    charge:    2.0471    magn:    0.0000    constr:    0.0000
     atom:   19    charge:    3.2077    magn:    0.0000    constr:    0.0000
     atom:   20    charge:    3.2018    magn:    0.0000    constr:    0.0000
     atom:   21    charge:    2.0594    magn:   -0.0000    constr:    0.0000
     atom:   22    charge:    2.0274    magn:   -0.0000    constr:    0.0000
     atom:   23    charge:    2.0673    magn:   -0.0003    constr:    0.0000
     atom:   24    charge:    2.0675    magn:   -0.0003    constr:    0.0000
     atom:   25    charge:    3.2421    magn:   -0.0000    constr:    0.0000
     atom:   26    charge:    3.2284    magn:   -0.0000    constr:    0.0000
     atom:   27    charge:    2.0850    magn:   -0.0000    constr:    0.0000
     atom:   28    charge:    2.0916    magn:   -0.0000    constr:    0.0000
     atom:   29    charge:    2.0849    magn:   -0.0000    constr:    0.0000
     atom:   30    charge:    2.0850    magn:   -0.0000    constr:    0.0000
     atom:   31    charge:    3.2066    magn:   -0.0000    constr:    0.0000
     atom:   32    charge:    3.1922    magn:    0.0000    constr:    0.0000
     atom:   33    charge:    2.0936    magn:    0.0000    constr:    0.0000
     atom:   34    charge:    2.0859    magn:    0.0000    constr:    0.0000
     atom:   35    charge:    2.0966    magn:    0.0000    constr:    0.0000
     atom:   36    charge:    2.0967    magn:    0.0000    constr:    0.0000
     atom:   37    charge:    3.2004    magn:   -0.0000    constr:    0.0000
     atom:   38    charge:    3.1975    magn:   -0.0000    constr:    0.0000
     atom:   39    charge:    2.0963    magn:   -0.0000    constr:    0.0000
     atom:   40    charge:    2.1042    magn:   -0.0000    constr:    0.0000
     atom:   41    charge:    2.0492    magn:   -0.0000    constr:    0.0000
     atom:   42    charge:    2.0474    magn:    0.0000    constr:    0.0000
     atom:   43    charge:    3.2092    magn:    0.0000    constr:    0.0000
     atom:   44    charge:    3.2014    magn:    0.0000    constr:    0.0000
     atom:   45    charge:    2.0594    magn:   -0.0000    constr:    0.0000
     atom:   46    charge:    2.0269    magn:    0.0000    constr:    0.0000
     atom:   47    charge:    2.0672    magn:   -0.0004    constr:    0.0000
     atom:   48    charge:    2.0675    magn:   -0.0004    constr:    0.0000
     atom:   49    charge:    1.2266    magn:    0.0013    constr:    0.0000
     atom:   50    charge:    1.2381    magn:    0.0225    constr:    0.0000

     total cpu time spent up to now is      700.3 secs

     total energy              =   -2997.48234532 Ry
     Harris-Foulkes estimate   =   -3019.21336096 Ry
     estimated scf accuracy    <    1481.62838998 Ry

     total magnetization       =    -0.40 Bohr mag/cell
     absolute magnetization    =     0.46 Bohr mag/cell

     iteration #  4     ecut=    29.40 Ry     beta=0.05
     Davidson diagonalization with overlap
     c_bands:  3 eigenvalues not converged
     c_bands:  5 eigenvalues not converged
     ethr =  1.00E-02,  avg # of iterations = 10.8

     negative rho (up, down):  1.201E-02 1.201E-02
 
     Adding external electric field

     Computed dipole along edir(3) : 
        Dipole               -4.4103 Ry au,        -11.2098 Debye
        Dipole field         -0.0083 Ry au
 
        Potential amp.        0.7715 Ry
        Total length         46.3494 bohr
 
 
     Adding external electric field

     Computed dipole along edir(3) : 
        Dipole               -4.4103 Ry au,        -11.2098 Debye
        Dipole field         -0.0083 Ry au
 
        Potential amp.        0.7715 Ry
        Total length         46.3494 bohr
 
 
     Magnetic moment per site:
     atom:    1    charge:    3.2321    magn:   -0.0002    constr:    0.0000
     atom:    2    charge:    3.2199    magn:   -0.0003    constr:    0.0000
     atom:    3    charge:    2.0929    magn:   -0.0002    constr:    0.0000
     atom:    4    charge:    2.1007    magn:   -0.0002    constr:    0.0000
     atom:    5    charge:    2.0940    magn:   -0.0000    constr:    0.0000
     atom:    6    charge:    2.0942    magn:   -0.0000    constr:    0.0000
     atom:    7    charge:    3.1975    magn:   -0.0000    constr:    0.0000
     atom:    8    charge:    3.1849    magn:   -0.0001    constr:    0.0000
     atom:    9    charge:    2.1003    magn:   -0.0000    constr:    0.0000
     atom:   10    charge:    2.0951    magn:    0.0000    constr:    0.0000
     atom:   11    charge:    2.1014    magn:   -0.0000    constr:    0.0000
     atom:   12    charge:    2.1015    magn:   -0.0000    constr:    0.0000
     atom:   13    charge:    3.1851    magn:   -0.0001    constr:    0.0000
     atom:   14    charge:    3.1824    magn:   -0.0000    constr:    0.0000
     atom:   15    charge:    2.1009    magn:    0.0000    constr:    0.0000
     atom:   16    charge:    2.1084    magn:    0.0000    constr:    0.0000
     atom:   17    charge:    2.0576    magn:   -0.0000    constr:    0.0000
     atom:   18    charge:    2.0566    magn:   -0.0000    constr:    0.0000
     atom:   19    charge:    3.2044    magn:    0.0001    constr:    0.0000
     atom:   20    charge:    3.2127    magn:    0.0001    constr:    0.0000
     atom:   21    charge:    2.0522    magn:   -0.0022    constr:    0.0000
     atom:   22    charge:    2.0401    magn:    0.0000    constr:    0.0000
     atom:   23    charge:    2.0684    magn:   -0.0029    constr:    0.0000
     atom:   24    charge:    2.0688    magn:   -0.0025    constr:    0.0000
     atom:   25    charge:    3.2320    magn:   -0.0002    constr:    0.0000
     atom:   26    charge:    3.2199    magn:   -0.0003    constr:    0.0000
     atom:   27    charge:    2.0929    magn:   -0.0002    constr:    0.0000
     atom:   28    charge:    2.1006    magn:   -0.0002    constr:    0.0000
     atom:   29    charge:    2.0940    magn:   -0.0000    constr:    0.0000
     atom:   30    charge:    2.0942    magn:   -0.0000    constr:    0.0000
     atom:   31    charge:    3.1971    magn:   -0.0001    constr:    0.0000
     atom:   32    charge:    3.1849    magn:   -0.0000    constr:    0.0000
     atom:   33    charge:    2.1005    magn:   -0.0000    constr:    0.0000
     atom:   34    charge:    2.0951    magn:    0.0000    constr:    0.0000
     atom:   35    charge:    2.1014    magn:   -0.0000    constr:    0.0000
     atom:   36    charge:    2.1015    magn:   -0.0000    constr:    0.0000
     atom:   37    charge:    3.1854    magn:   -0.0001    constr:    0.0000
     atom:   38    charge:    3.1823    magn:   -0.0000    constr:    0.0000
     atom:   39    charge:    2.1003    magn:    0.0000    constr:    0.0000
     atom:   40    charge:    2.1073    magn:    0.0000    constr:    0.0000
     atom:   41    charge:    2.0587    magn:   -0.0000    constr:    0.0000
     atom:   42    charge:    2.0569    magn:   -0.0000    constr:    0.0000
     atom:   43    charge:    3.2052    magn:    0.0001    constr:    0.0000
     atom:   44    charge:    3.2123    magn:    0.0002    constr:    0.0000
     atom:   45    charge:    2.0533    magn:   -0.0019    constr:    0.0000
     atom:   46    charge:    2.0395    magn:    0.0000    constr:    0.0000
     atom:   47    charge:    2.0681    magn:   -0.0031    constr:    0.0000
     atom:   48    charge:    2.0697    magn:   -0.0021    constr:    0.0000
     atom:   49    charge:    1.2288    magn:    0.0011    constr:    0.0000
     atom:   50    charge:    1.2433    magn:    0.0221    constr:    0.0000

     total cpu time spent up to now is      798.5 secs

     total energy              =   -3001.19235903 Ry
     Harris-Foulkes estimate   =   -3006.15050236 Ry
     estimated scf accuracy    <     382.94057041 Ry

     total magnetization       =    -1.29 Bohr mag/cell
     absolute magnetization    =     1.52 Bohr mag/cell

     iteration #  5     ecut=    29.40 Ry     beta=0.05
     Davidson diagonalization with overlap
     ethr =  1.00E-02,  avg # of iterations =  5.5

     negative rho (up, down):  1.212E-02 1.212E-02
 
     Adding external electric field

     Computed dipole along edir(3) : 
        Dipole               -4.1753 Ry au,        -10.6125 Debye
        Dipole field         -0.0079 Ry au
 
        Potential amp.        0.7304 Ry
        Total length         46.3494 bohr
 
 
     Adding external electric field

     Computed dipole along edir(3) : 
        Dipole               -4.1753 Ry au,        -10.6125 Debye
        Dipole field         -0.0079 Ry au
 
        Potential amp.        0.7304 Ry
        Total length         46.3494 bohr
 
 
     Magnetic moment per site:
     atom:    1    charge:    3.2226    magn:   -0.0001    constr:    0.0000
     atom:    2    charge:    3.2118    magn:   -0.0002    constr:    0.0000
     atom:    3    charge:    2.0957    magn:   -0.0002    constr:    0.0000
     atom:    4    charge:    2.1039    magn:   -0.0002    constr:    0.0000
     atom:    5    charge:    2.0970    magn:   -0.0000    constr:    0.0000
     atom:    6    charge:    2.0971    magn:   -0.0000    constr:    0.0000
     atom:    7    charge:    3.1906    magn:   -0.0000    constr:    0.0000
     atom:    8    charge:    3.1793    magn:   -0.0001    constr:    0.0000
     atom:    9    charge:    2.1032    magn:   -0.0000    constr:    0.0000
     atom:   10    charge:    2.0980    magn:    0.0000    constr:    0.0000
     atom:   11    charge:    2.1042    magn:   -0.0000    constr:    0.0000
     atom:   12    charge:    2.1043    magn:   -0.0000    constr:    0.0000
     atom:   13    charge:    3.1804    magn:   -0.0000    constr:    0.0000
     atom:   14    charge:    3.1777    magn:    0.0000    constr:    0.0000
     atom:   15    charge:    2.1040    magn:    0.0000    constr:    0.0000
     atom:   16    charge:    2.1114    magn:    0.0000    constr:    0.0000
     atom:   17    charge:    2.0641    magn:   -0.0000    constr:    0.0000
     atom:   18    charge:    2.0631    magn:   -0.0000    constr:    0.0000
     atom:   19    charge:    3.1960    magn:    0.0000    constr:    0.0000
     atom:   20    charge:    3.2018    magn:    0.0001    constr:    0.0000
     atom:   21    charge:    2.0613    magn:   -0.0009    constr:    0.0000
     atom:   22    charge:    2.0476    magn:    0.0000    constr:    0.0000
     atom:   23    charge:    2.0758    magn:   -0.0023    constr:    0.0000
     atom:   24    charge:    2.0762    magn:   -0.0020    constr:    0.0000
     atom:   25    charge:    3.2225    magn:   -0.0002    constr:    0.0000
     atom:   26    charge:    3.2119    magn:   -0.0002    constr:    0.0000
     atom:   27    charge:    2.0957    magn:   -0.0002    constr:    0.0000
     atom:   28    charge:    2.1038    magn:   -0.0001    constr:    0.0000
     atom:   29    charge:    2.0970    magn:   -0.0000    constr:    0.0000
     atom:   30    charge:    2.0971    magn:   -0.0000    constr:    0.0000
     atom:   31    charge:    3.1903    magn:   -0.0000    constr:    0.0000
     atom:   32    charge:    3.1794    magn:   -0.0000    constr:    0.0000
     atom:   33    charge:    2.1034    magn:   -0.0000    constr:    0.0000
     atom:   34    charge:    2.0981    magn:    0.0000    constr:    0.0000
     atom:   35    charge:    2.1041    magn:   -0.0000    constr:    0.0000
     atom:   36    charge:    2.1043    magn:   -0.0000    constr:    0.0000
     atom:   37    charge:    3.1807    magn:   -0.0000    constr:    0.0000
     atom:   38    charge:    3.1775    magn:    0.0000    constr:    0.0000
     atom:   39    charge:    2.1033    magn:    0.0000    constr:    0.0000
     atom:   40    charge:    2.1101    magn:   -0.0000    constr:    0.0000
     atom:   41    charge:    2.0652    magn:   -0.0000    constr:    0.0000
     atom:   42    charge:    2.0634    magn:   -0.0000    constr:    0.0000
     atom:   43    charge:    3.1970    magn:    0.0000    constr:    0.0000
     atom:   44    charge:    3.2014    magn:    0.0001    constr:    0.0000
     atom:   45    charge:    2.0624    magn:   -0.0010    constr:    0.0000
     atom:   46    charge:    2.0470    magn:    0.0000    constr:    0.0000
     atom:   47    charge:    2.0756    magn:   -0.0025    constr:    0.0000
     atom:   48    charge:    2.0768    magn:   -0.0016    constr:    0.0000
     atom:   49    charge:    1.2283    magn:    0.0010    constr:    0.0000
     atom:   50    charge:    1.2469    magn:    0.0217    constr:    0.0000

     total cpu time spent up to now is      870.8 secs

     total energy              =   -3010.07375994 Ry
     Harris-Foulkes estimate   =   -3010.53643781 Ry
     estimated scf accuracy    <      12.79482978 Ry

     total magnetization       =     0.19 Bohr mag/cell
     absolute magnetization    =     0.27 Bohr mag/cell

     iteration #  6     ecut=    29.40 Ry     beta=0.05
     Davidson diagonalization with overlap
     ethr =  3.25E-03,  avg # of iterations =  1.6

     negative rho (up, down):  1.400E-02 1.400E-02
 
     Adding external electric field

     Computed dipole along edir(3) : 
        Dipole               -0.7249 Ry au,         -1.8426 Debye
        Dipole field         -0.0014 Ry au
 
        Potential amp.        0.1268 Ry
        Total length         46.3494 bohr
 
 
     Adding external electric field

     Computed dipole along edir(3) : 
        Dipole               -0.7249 Ry au,         -1.8426 Debye
        Dipole field         -0.0014 Ry au
 
        Potential amp.        0.1268 Ry
        Total length         46.3494 bohr
 
 
     Magnetic moment per site:
     atom:    1    charge:    3.0935    magn:    0.0003    constr:    0.0000
     atom:    2    charge:    3.1011    magn:    0.0005    constr:    0.0000
     atom:    3    charge:    2.1331    magn:    0.0003    constr:    0.0000
     atom:    4    charge:    2.1463    magn:    0.0001    constr:    0.0000
     atom:    5    charge:    2.1339    magn:   -0.0000    constr:    0.0000
     atom:    6    charge:    2.1341    magn:    0.0000    constr:    0.0000
     atom:    7    charge:    3.0977    magn:    0.0001    constr:    0.0000
     atom:    8    charge:    3.1048    magn:    0.0003    constr:    0.0000
     atom:    9    charge:    2.1364    magn:   -0.0000    constr:    0.0000
     atom:   10    charge:    2.1355    magn:   -0.0002    constr:    0.0000
     atom:   11    charge:    2.1356    magn:    0.0000    constr:    0.0000
     atom:   12    charge:    2.1358    magn:    0.0000    constr:    0.0000
     atom:   13    charge:    3.1153    magn:    0.0002    constr:    0.0000
     atom:   14    charge:    3.1129    magn:    0.0003    constr:    0.0000
     atom:   15    charge:    2.1413    magn:   -0.0001    constr:    0.0000
     atom:   16    charge:    2.1459    magn:   -0.0001    constr:    0.0000
     atom:   17    charge:    2.1430    magn:   -0.0000    constr:    0.0000
     atom:   18    charge:    2.1423    magn:    0.0000    constr:    0.0000
     atom:   19    charge:    3.0864    magn:   -0.0001    constr:    0.0000
     atom:   20    charge:    3.0610    magn:   -0.0002    constr:    0.0000
     atom:   21    charge:    2.1863    magn:    0.0159    constr:    0.0000
     atom:   22    charge:    2.1416    magn:   -0.0001    constr:    0.0000
     atom:   23    charge:    2.1758    magn:    0.0056    constr:    0.0000
     atom:   24    charge:    2.1745    magn:    0.0055    constr:    0.0000
     atom:   25    charge:    3.0937    magn:    0.0006    constr:    0.0000
     atom:   26    charge:    3.1010    magn:    0.0008    constr:    0.0000
     atom:   27    charge:    2.1330    magn:    0.0003    constr:    0.0000
     atom:   28    charge:    2.1466    magn:    0.0001    constr:    0.0000
     atom:   29    charge:    2.1339    magn:   -0.0000    constr:    0.0000
     atom:   30    charge:    2.1340    magn:   -0.0000    constr:    0.0000
     atom:   31    charge:    3.0974    magn:    0.0001    constr:    0.0000
     atom:   32    charge:    3.1046    magn:    0.0003    constr:    0.0000
     atom:   33    charge:    2.1369    magn:    0.0000    constr:    0.0000
     atom:   34    charge:    2.1356    magn:   -0.0002    constr:    0.0000
     atom:   35    charge:    2.1355    magn:    0.0000    constr:    0.0000
     atom:   36    charge:    2.1357    magn:    0.0000    constr:    0.0000
     atom:   37    charge:    3.1157    magn:    0.0002    constr:    0.0000
     atom:   38    charge:    3.1127    magn:    0.0003    constr:    0.0000
     atom:   39    charge:    2.1406    magn:   -0.0001    constr:    0.0000
     atom:   40    charge:    2.1441    magn:   -0.0001    constr:    0.0000
     atom:   41    charge:    2.1442    magn:   -0.0000    constr:    0.0000
     atom:   42    charge:    2.1428    magn:   -0.0000    constr:    0.0000
     atom:   43    charge:    3.0913    magn:   -0.0001    constr:    0.0000
     atom:   44    charge:    3.0604    magn:   -0.0003    constr:    0.0000
     atom:   45    charge:    2.1878    magn:    0.0094    constr:    0.0000
     atom:   46    charge:    2.1409    magn:   -0.0001    constr:    0.0000
     atom:   47    charge:    2.1764    magn:    0.0056    constr:    0.0000
     atom:   48    charge:    2.1728    magn:    0.0037    constr:    0.0000
     atom:   49    charge:    1.2252    magn:   -0.0002    constr:    0.0000
     atom:   50    charge:    1.2932    magn:    0.0167    constr:    0.0000

     total cpu time spent up to now is      920.1 secs

     total energy              =   -3005.39726863 Ry
     Harris-Foulkes estimate   =   -3010.17687488 Ry
     estimated scf accuracy    <      11.57364388 Ry

     total magnetization       =     0.19 Bohr mag/cell
     absolute magnetization    =     0.24 Bohr mag/cell

     iteration #  7     ecut=    29.40 Ry     beta=0.05
     Davidson diagonalization with overlap
     ethr =  2.94E-03,  avg # of iterations =  5.5

     negative rho (up, down):  1.428E-02 1.428E-02
 
     Adding external electric field

     Computed dipole along edir(3) : 
        Dipole               -0.6729 Ry au,         -1.7104 Debye
        Dipole field         -0.0013 Ry au
 
        Potential amp.        0.1177 Ry
        Total length         46.3494 bohr
 
 
     Adding external electric field

     Computed dipole along edir(3) : 
        Dipole               -0.6729 Ry au,         -1.7104 Debye
        Dipole field         -0.0013 Ry au
 
        Potential amp.        0.1177 Ry
        Total length         46.3494 bohr
 
 
     Magnetic moment per site:
     atom:    1    charge:    3.0922    magn:    0.0003    constr:    0.0000
     atom:    2    charge:    3.1001    magn:    0.0005    constr:    0.0000
     atom:    3    charge:    2.1336    magn:    0.0003    constr:    0.0000
     atom:    4    charge:    2.1468    magn:    0.0001    constr:    0.0000
     atom:    5    charge:    2.1342    magn:   -0.0000    constr:    0.0000
     atom:    6    charge:    2.1344    magn:    0.0000    constr:    0.0000
     atom:    7    charge:    3.0968    magn:    0.0001    constr:    0.0000
     atom:    8    charge:    3.1041    magn:    0.0003    constr:    0.0000
     atom:    9    charge:    2.1367    magn:   -0.0000    constr:    0.0000
     atom:   10    charge:    2.1358    magn:   -0.0002    constr:    0.0000
     atom:   11    charge:    2.1359    magn:    0.0000    constr:    0.0000
     atom:   12    charge:    2.1361    magn:    0.0000    constr:    0.0000
     atom:   13    charge:    3.1149    magn:    0.0002    constr:    0.0000
     atom:   14    charge:    3.1124    magn:    0.0003    constr:    0.0000
     atom:   15    charge:    2.1416    magn:   -0.0001    constr:    0.0000
     atom:   16    charge:    2.1462    magn:   -0.0001    constr:    0.0000
     atom:   17    charge:    2.1437    magn:   -0.0000    constr:    0.0000
     atom:   18    charge:    2.1431    magn:    0.0000    constr:    0.0000
     atom:   19    charge:    3.0849    magn:   -0.0002    constr:    0.0000
     atom:   20    charge:    3.0589    magn:   -0.0002    constr:    0.0000
     atom:   21    charge:    2.1877    magn:    0.0160    constr:    0.0000
     atom:   22    charge:    2.1424    magn:   -0.0001    constr:    0.0000
     atom:   23    charge:    2.1769    magn:    0.0056    constr:    0.0000
     atom:   24    charge:    2.1756    magn:    0.0055    constr:    0.0000
     atom:   25    charge:    3.0925    magn:    0.0006    constr:    0.0000
     atom:   26    charge:    3.0999    magn:    0.0008    constr:    0.0000
     atom:   27    charge:    2.1335    magn:    0.0003    constr:    0.0000
     atom:   28    charge:    2.1471    magn:    0.0001    constr:    0.0000
     atom:   29    charge:    2.1342    magn:   -0.0000    constr:    0.0000
     atom:   30    charge:    2.1344    magn:   -0.0000    constr:    0.0000
     atom:   31    charge:    3.0964    magn:    0.0001    constr:    0.0000
     atom:   32    charge:    3.1039    magn:    0.0003    constr:    0.0000
     atom:   33    charge:    2.1372    magn:    0.0000    constr:    0.0000
     atom:   34    charge:    2.1359    magn:   -0.0002    constr:    0.0000
     atom:   35    charge:    2.1359    magn:    0.0000    constr:    0.0000
     atom:   36    charge:    2.1361    magn:    0.0000    constr:    0.0000
     atom:   37    charge:    3.1153    magn:    0.0002    constr:    0.0000
     atom:   38    charge:    3.1122    magn:    0.0003    constr:    0.0000
     atom:   39    charge:    2.1410    magn:   -0.0001    constr:    0.0000
     atom:   40    charge:    2.1444    magn:   -0.0001    constr:    0.0000
     atom:   41    charge:    2.1449    magn:   -0.0000    constr:    0.0000
     atom:   42    charge:    2.1435    magn:   -0.0000    constr:    0.0000
     atom:   43    charge:    3.0899    magn:   -0.0001    constr:    0.0000
     atom:   44    charge:    3.0584    magn:   -0.0003    constr:    0.0000
     atom:   45    charge:    2.1892    magn:    0.0095    constr:    0.0000
     atom:   46    charge:    2.1418    magn:   -0.0001    constr:    0.0000
     atom:   47    charge:    2.1775    magn:    0.0057    constr:    0.0000
     atom:   48    charge:    2.1739    magn:    0.0037    constr:    0.0000
     atom:   49    charge:    1.2250    magn:   -0.0002    constr:    0.0000
     atom:   50    charge:    1.2937    magn:    0.0166    constr:    0.0000

     total cpu time spent up to now is     1023.1 secs

     total energy              =   -3024.43539175 Ry
     Harris-Foulkes estimate   =   -3023.68683427 Ry
     estimated scf accuracy    <    2243.82398388 Ry

     total magnetization       =     0.02 Bohr mag/cell
     absolute magnetization    =     0.06 Bohr mag/cell

     iteration #  8     ecut=    29.40 Ry     beta=0.05
     Davidson diagonalization with overlap
     ethr =  2.94E-03,  avg # of iterations =  1.4

     negative rho (up, down):  1.455E-02 1.455E-02
 
     Adding external electric field

     Computed dipole along edir(3) : 
        Dipole               -0.7539 Ry au,         -1.9163 Debye
        Dipole field         -0.0014 Ry au
 
        Potential amp.        0.1319 Ry
        Total length         46.3494 bohr
 
 
     Adding external electric field

     Computed dipole along edir(3) : 
        Dipole               -0.7539 Ry au,         -1.9163 Debye
        Dipole field         -0.0014 Ry au
 
        Potential amp.        0.1319 Ry
        Total length         46.3494 bohr
 
 
     Magnetic moment per site:
     atom:    1    charge:    3.0919    magn:    0.0003    constr:    0.0000
     atom:    2    charge:    3.0997    magn:    0.0005    constr:    0.0000
     atom:    3    charge:    2.1346    magn:    0.0004    constr:    0.0000
     atom:    4    charge:    2.1474    magn:    0.0001    constr:    0.0000
     atom:    5    charge:    2.1347    magn:   -0.0000    constr:    0.0000
     atom:    6    charge:    2.1349    magn:    0.0000    constr:    0.0000
     atom:    7    charge:    3.0970    magn:    0.0001    constr:    0.0000
     atom:    8    charge:    3.1042    magn:    0.0003    constr:    0.0000
     atom:    9    charge:    2.1368    magn:   -0.0000    constr:    0.0000
     atom:   10    charge:    2.1362    magn:   -0.0002    constr:    0.0000
     atom:   11    charge:    2.1359    magn:    0.0000    constr:    0.0000
     atom:   12    charge:    2.1361    magn:    0.0000    constr:    0.0000
     atom:   13    charge:    3.1129    magn:    0.0002    constr:    0.0000
     atom:   14    charge:    3.1115    magn:    0.0003    constr:    0.0000
     atom:   15    charge:    2.1416    magn:   -0.0001    constr:    0.0000
     atom:   16    charge:    2.1461    magn:   -0.0001    constr:    0.0000
     atom:   17    charge:    2.1439    magn:   -0.0000    constr:    0.0000
     atom:   18    charge:    2.1433    magn:    0.0000    constr:    0.0000
     atom:   19    charge:    3.0864    magn:   -0.0001    constr:    0.0000
     atom:   20    charge:    3.0612    magn:   -0.0002    constr:    0.0000
     atom:   21    charge:    2.1866    magn:    0.0161    constr:    0.0000
     atom:   22    charge:    2.1424    magn:   -0.0001    constr:    0.0000
     atom:   23    charge:    2.1761    magn:    0.0057    constr:    0.0000
     atom:   24    charge:    2.1748    magn:    0.0056    constr:    0.0000
     atom:   25    charge:    3.0921    magn:    0.0006    constr:    0.0000
     atom:   26    charge:    3.0996    magn:    0.0009    constr:    0.0000
     atom:   27    charge:    2.1345    magn:    0.0004    constr:    0.0000
     atom:   28    charge:    2.1477    magn:    0.0001    constr:    0.0000
     atom:   29    charge:    2.1347    magn:   -0.0000    constr:    0.0000
     atom:   30    charge:    2.1349    magn:   -0.0000    constr:    0.0000
     atom:   31    charge:    3.0966    magn:    0.0001    constr:    0.0000
     atom:   32    charge:    3.1040    magn:    0.0003    constr:    0.0000
     atom:   33    charge:    2.1373    magn:    0.0000    constr:    0.0000
     atom:   34    charge:    2.1363    magn:   -0.0002    constr:    0.0000
     atom:   35    charge:    2.1358    magn:    0.0000    constr:    0.0000
     atom:   36    charge:    2.1360    magn:    0.0000    constr:    0.0000
     atom:   37    charge:    3.1133    magn:    0.0001    constr:    0.0000
     atom:   38    charge:    3.1113    magn:    0.0003    constr:    0.0000
     atom:   39    charge:    2.1410    magn:   -0.0001    constr:    0.0000
     atom:   40    charge:    2.1444    magn:   -0.0001    constr:    0.0000
     atom:   41    charge:    2.1451    magn:   -0.0000    constr:    0.0000
     atom:   42    charge:    2.1437    magn:   -0.0000    constr:    0.0000
     atom:   43    charge:    3.0916    magn:   -0.0001    constr:    0.0000
     atom:   44    charge:    3.0607    magn:   -0.0003    constr:    0.0000
     atom:   45    charge:    2.1881    magn:    0.0096    constr:    0.0000
     atom:   46    charge:    2.1417    magn:   -0.0001    constr:    0.0000
     atom:   47    charge:    2.1767    magn:    0.0058    constr:    0.0000
     atom:   48    charge:    2.1731    magn:    0.0038    constr:    0.0000
     atom:   49    charge:    1.2253    magn:   -0.0002    constr:    0.0000
     atom:   50    charge:    1.2937    magn:    0.0166    constr:    0.0000

     total cpu time spent up to now is     1071.1 secs

     total energy              =   -3023.32367001 Ry
     Harris-Foulkes estimate   =   -3024.45351186 Ry
     estimated scf accuracy    <    2350.10253032 Ry

     total magnetization       =     0.02 Bohr mag/cell
     absolute magnetization    =     0.06 Bohr mag/cell

     iteration #  9     ecut=    29.40 Ry     beta=0.05
     Davidson diagonalization with overlap
     ethr =  2.94E-03,  avg # of iterations =  1.1

     negative rho (up, down):  1.447E-02 1.446E-02
 
     Adding external electric field

     Computed dipole along edir(3) : 
        Dipole               -1.6841 Ry au,         -4.2805 Debye
        Dipole field         -0.0032 Ry au
 
        Potential amp.        0.2946 Ry
        Total length         46.3494 bohr
 
 
     Adding external electric field

     Computed dipole along edir(3) : 
        Dipole               -1.6841 Ry au,         -4.2805 Debye
        Dipole field         -0.0032 Ry au
 
        Potential amp.        0.2946 Ry
        Total length         46.3494 bohr
 
 
     Magnetic moment per site:
     atom:    1    charge:    3.1027    magn:    0.0003    constr:    0.0000
     atom:    2    charge:    3.1083    magn:    0.0005    constr:    0.0000
     atom:    3    charge:    2.1315    magn:    0.0003    constr:    0.0000
     atom:    4    charge:    2.1462    magn:    0.0001    constr:    0.0000
     atom:    5    charge:    2.1333    magn:   -0.0000    constr:    0.0000
     atom:    6    charge:    2.1335    magn:    0.0000    constr:    0.0000
     atom:    7    charge:    3.1070    magn:    0.0001    constr:    0.0000
     atom:    8    charge:    3.1120    magn:    0.0003    constr:    0.0000
     atom:    9    charge:    2.1340    magn:   -0.0000    constr:    0.0000
     atom:   10    charge:    2.1341    magn:   -0.0002    constr:    0.0000
     atom:   11    charge:    2.1323    magn:    0.0000    constr:    0.0000
     atom:   12    charge:    2.1325    magn:    0.0000    constr:    0.0000
     atom:   13    charge:    3.1152    magn:    0.0001    constr:    0.0000
     atom:   14    charge:    3.1148    magn:    0.0000    constr:    0.0000
     atom:   15    charge:    2.1373    magn:   -0.0001    constr:    0.0000
     atom:   16    charge:    2.1413    magn:   -0.0001    constr:    0.0000
     atom:   17    charge:    2.1361    magn:   -0.0000    constr:    0.0000
     atom:   18    charge:    2.1353    magn:   -0.0000    constr:    0.0000
     atom:   19    charge:    3.1031    magn:   -0.0001    constr:    0.0000
     atom:   20    charge:    3.0887    magn:   -0.0002    constr:    0.0000
     atom:   21    charge:    2.1659    magn:    0.0146    constr:    0.0000
     atom:   22    charge:    2.1311    magn:   -0.0001    constr:    0.0000
     atom:   23    charge:    2.1616    magn:    0.0050    constr:    0.0000
     atom:   24    charge:    2.1608    magn:    0.0050    constr:    0.0000
     atom:   25    charge:    3.1029    magn:    0.0005    constr:    0.0000
     atom:   26    charge:    3.1083    magn:    0.0008    constr:    0.0000
     atom:   27    charge:    2.1315    magn:    0.0004    constr:    0.0000
     atom:   28    charge:    2.1465    magn:    0.0001    constr:    0.0000
     atom:   29    charge:    2.1333    magn:   -0.0000    constr:    0.0000
     atom:   30    charge:    2.1334    magn:   -0.0000    constr:    0.0000
     atom:   31    charge:    3.1067    magn:    0.0001    constr:    0.0000
     atom:   32    charge:    3.1118    magn:    0.0002    constr:    0.0000
     atom:   33    charge:    2.1344    magn:    0.0000    constr:    0.0000
     atom:   34    charge:    2.1342    magn:   -0.0002    constr:    0.0000
     atom:   35    charge:    2.1323    magn:    0.0000    constr:    0.0000
     atom:   36    charge:    2.1325    magn:    0.0000    constr:    0.0000
     atom:   37    charge:    3.1154    magn:    0.0001    constr:    0.0000
     atom:   38    charge:    3.1146    magn:   -0.0000    constr:    0.0000
     atom:   39    charge:    2.1367    magn:   -0.0001    constr:    0.0000
     atom:   40    charge:    2.1398    magn:   -0.0001    constr:    0.0000
     atom:   41    charge:    2.1372    magn:   -0.0000    constr:    0.0000
     atom:   42    charge:    2.1358    magn:   -0.0000    constr:    0.0000
     atom:   43    charge:    3.1086    magn:   -0.0001    constr:    0.0000
     atom:   44    charge:    3.0883    magn:   -0.0003    constr:    0.0000
     atom:   45    charge:    2.1674    magn:    0.0087    constr:    0.0000
     atom:   46    charge:    2.1304    magn:   -0.0001    constr:    0.0000
     atom:   47    charge:    2.1622    magn:    0.0051    constr:    0.0000
     atom:   48    charge:    2.1597    magn:    0.0035    constr:    0.0000
     atom:   49    charge:    1.2295    magn:   -0.0001    constr:    0.0000
     atom:   50    charge:    1.2892    magn:    0.0169    constr:    0.0000

     total cpu time spent up to now is     1118.6 secs

     total energy              =   -3011.14970405 Ry
     Harris-Foulkes estimate   =   -3023.33349087 Ry
     estimated scf accuracy    <    2244.31366546 Ry

     total magnetization       =     0.01 Bohr mag/cell
     absolute magnetization    =     0.08 Bohr mag/cell

     iteration # 10     ecut=    29.40 Ry     beta=0.05
     Davidson diagonalization with overlap
     ethr =  2.94E-03,  avg # of iterations =  8.6

     negative rho (up, down):  1.497E-02 1.497E-02
 
     Adding external electric field

     Computed dipole along edir(3) : 
        Dipole               -1.6718 Ry au,         -4.2493 Debye
        Dipole field         -0.0032 Ry au
 
        Potential amp.        0.2925 Ry
        Total length         46.3494 bohr
 
 
     Adding external electric field

     Computed dipole along edir(3) : 
        Dipole               -1.6718 Ry au,         -4.2493 Debye
        Dipole field         -0.0032 Ry au
 
        Potential amp.        0.2925 Ry
        Total length         46.3494 bohr
 
 
     Magnetic moment per site:
     atom:    1    charge:    3.0878    magn:    0.0003    constr:    0.0000
     atom:    2    charge:    3.0935    magn:    0.0006    constr:    0.0000
     atom:    3    charge:    2.1371    magn:    0.0004    constr:    0.0000
     atom:    4    charge:    2.1528    magn:    0.0001    constr:    0.0000
     atom:    5    charge:    2.1388    magn:   -0.0000    constr:    0.0000
     atom:    6    charge:    2.1389    magn:    0.0000    constr:    0.0000
     atom:    7    charge:    3.0955    magn:    0.0001    constr:    0.0000
     atom:    8    charge:    3.1026    magn:    0.0003    constr:    0.0000
     atom:    9    charge:    2.1381    magn:   -0.0000    constr:    0.0000
     atom:   10    charge:    2.1397    magn:   -0.0002    constr:    0.0000
     atom:   11    charge:    2.1358    magn:    0.0000    constr:    0.0000
     atom:   12    charge:    2.1360    magn:    0.0000    constr:    0.0000
     atom:   13    charge:    3.1035    magn:    0.0001    constr:    0.0000
     atom:   14    charge:    3.1037    magn:    0.0000    constr:    0.0000
     atom:   15    charge:    2.1408    magn:   -0.0001    constr:    0.0000
     atom:   16    charge:    2.1441    magn:   -0.0001    constr:    0.0000
     atom:   17    charge:    2.1457    magn:   -0.0000    constr:    0.0000
     atom:   18    charge:    2.1450    magn:   -0.0000    constr:    0.0000
     atom:   19    charge:    3.0947    magn:   -0.0001    constr:    0.0000
     atom:   20    charge:    3.0800    magn:   -0.0003    constr:    0.0000
     atom:   21    charge:    2.1704    magn:    0.0166    constr:    0.0000
     atom:   22    charge:    2.1417    magn:   -0.0001    constr:    0.0000
     atom:   23    charge:    2.1717    magn:    0.0060    constr:    0.0000
     atom:   24    charge:    2.1710    magn:    0.0060    constr:    0.0000
     atom:   25    charge:    3.0881    magn:    0.0006    constr:    0.0000
     atom:   26    charge:    3.0934    magn:    0.0009    constr:    0.0000
     atom:   27    charge:    2.1371    magn:    0.0004    constr:    0.0000
     atom:   28    charge:    2.1531    magn:    0.0001    constr:    0.0000
     atom:   29    charge:    2.1388    magn:   -0.0000    constr:    0.0000
     atom:   30    charge:    2.1389    magn:   -0.0000    constr:    0.0000
     atom:   31    charge:    3.0952    magn:    0.0001    constr:    0.0000
     atom:   32    charge:    3.1025    magn:    0.0002    constr:    0.0000
     atom:   33    charge:    2.1385    magn:    0.0000    constr:    0.0000
     atom:   34    charge:    2.1398    magn:   -0.0002    constr:    0.0000
     atom:   35    charge:    2.1357    magn:    0.0000    constr:    0.0000
     atom:   36    charge:    2.1359    magn:    0.0000    constr:    0.0000
     atom:   37    charge:    3.1038    magn:    0.0001    constr:    0.0000
     atom:   38    charge:    3.1035    magn:   -0.0000    constr:    0.0000
     atom:   39    charge:    2.1402    magn:   -0.0001    constr:    0.0000
     atom:   40    charge:    2.1428    magn:   -0.0001    constr:    0.0000
     atom:   41    charge:    2.1469    magn:   -0.0000    constr:    0.0000
     atom:   42    charge:    2.1455    magn:   -0.0000    constr:    0.0000
     atom:   43    charge:    3.0994    magn:   -0.0001    constr:    0.0000
     atom:   44    charge:    3.0796    magn:   -0.0003    constr:    0.0000
     atom:   45    charge:    2.1720    magn:    0.0101    constr:    0.0000
     atom:   46    charge:    2.1409    magn:   -0.0001    constr:    0.0000
     atom:   47    charge:    2.1723    magn:    0.0061    constr:    0.0000
     atom:   48    charge:    2.1699    magn:    0.0043    constr:    0.0000
     atom:   49    charge:    1.2311    magn:   -0.0003    constr:    0.0000
     atom:   50    charge:    1.2950    magn:    0.0161    constr:    0.0000

     total cpu time spent up to now is     1203.4 secs

     total energy              =   -3012.73841603 Ry
     Harris-Foulkes estimate   =   -3013.00541130 Ry
     estimated scf accuracy    <    1058.67307964 Ry

     total magnetization       =     0.03 Bohr mag/cell
     absolute magnetization    =     0.10 Bohr mag/cell

     iteration # 11     ecut=    29.40 Ry     beta=0.05
     Davidson diagonalization with overlap
     ethr =  2.94E-03,  avg # of iterations =  1.2

     negative rho (up, down):  1.495E-02 1.494E-02
 
     Adding external electric field

     Computed dipole along edir(3) : 
        Dipole               -2.3850 Ry au,         -6.0620 Debye
        Dipole field         -0.0045 Ry au
 
        Potential amp.        0.4172 Ry
        Total length         46.3494 bohr
 
 
     Adding external electric field

     Computed dipole along edir(3) : 
        Dipole               -2.3850 Ry au,         -6.0620 Debye
        Dipole field         -0.0045 Ry au
 
        Potential amp.        0.4172 Ry
        Total length         46.3494 bohr
 
 
     Magnetic moment per site:
     atom:    1    charge:    3.1015    magn:    0.0003    constr:    0.0000
     atom:    2    charge:    3.1041    magn:    0.0005    constr:    0.0000
     atom:    3    charge:    2.1320    magn:    0.0003    constr:    0.0000
     atom:    4    charge:    2.1483    magn:    0.0001    constr:    0.0000
     atom:    5    charge:    2.1359    magn:   -0.0000    constr:    0.0000
     atom:    6    charge:    2.1361    magn:   -0.0000    constr:    0.0000
     atom:    7    charge:    3.1055    magn:    0.0001    constr:    0.0000
     atom:    8    charge:    3.1104    magn:    0.0002    constr:    0.0000
     atom:    9    charge:    2.1352    magn:   -0.0000    constr:    0.0000
     atom:   10    charge:    2.1369    magn:   -0.0002    constr:    0.0000
     atom:   11    charge:    2.1323    magn:    0.0000    constr:    0.0000
     atom:   12    charge:    2.1324    magn:    0.0000    constr:    0.0000
     atom:   13    charge:    3.1090    magn:    0.0001    constr:    0.0000
     atom:   14    charge:    3.1108    magn:   -0.0001    constr:    0.0000
     atom:   15    charge:    2.1361    magn:   -0.0001    constr:    0.0000
     atom:   16    charge:    2.1395    magn:   -0.0001    constr:    0.0000
     atom:   17    charge:    2.1372    magn:   -0.0000    constr:    0.0000
     atom:   18    charge:    2.1364    magn:   -0.0000    constr:    0.0000
     atom:   19    charge:    3.1116    magn:   -0.0001    constr:    0.0000
     atom:   20    charge:    3.1053    magn:   -0.0002    constr:    0.0000
     atom:   21    charge:    2.1496    magn:    0.0145    constr:    0.0000
     atom:   22    charge:    2.1301    magn:   -0.0001    constr:    0.0000
     atom:   23    charge:    2.1585    magn:    0.0049    constr:    0.0000
     atom:   24    charge:    2.1582    magn:    0.0050    constr:    0.0000
     atom:   25    charge:    3.1017    magn:    0.0005    constr:    0.0000
     atom:   26    charge:    3.1041    magn:    0.0007    constr:    0.0000
     atom:   27    charge:    2.1320    magn:    0.0004    constr:    0.0000
     atom:   28    charge:    2.1485    magn:    0.0001    constr:    0.0000
     atom:   29    charge:    2.1359    magn:   -0.0000    constr:    0.0000
     atom:   30    charge:    2.1360    magn:   -0.0000    constr:    0.0000
     atom:   31    charge:    3.1051    magn:    0.0001    constr:    0.0000
     atom:   32    charge:    3.1103    magn:    0.0002    constr:    0.0000
     atom:   33    charge:    2.1356    magn:   -0.0000    constr:    0.0000
     atom:   34    charge:    2.1370    magn:   -0.0002    constr:    0.0000
     atom:   35    charge:    2.1322    magn:    0.0000    constr:    0.0000
     atom:   36    charge:    2.1324    magn:    0.0000    constr:    0.0000
     atom:   37    charge:    3.1093    magn:    0.0001    constr:    0.0000
     atom:   38    charge:    3.1106    magn:   -0.0001    constr:    0.0000
     atom:   39    charge:    2.1354    magn:   -0.0001    constr:    0.0000
     atom:   40    charge:    2.1383    magn:   -0.0001    constr:    0.0000
     atom:   41    charge:    2.1383    magn:   -0.0000    constr:    0.0000
     atom:   42    charge:    2.1369    magn:   -0.0000    constr:    0.0000
     atom:   43    charge:    3.1156    magn:   -0.0001    constr:    0.0000
     atom:   44    charge:    3.1049    magn:   -0.0003    constr:    0.0000
     atom:   45    charge:    2.1512    magn:    0.0088    constr:    0.0000
     atom:   46    charge:    2.1291    magn:   -0.0000    constr:    0.0000
     atom:   47    charge:    2.1591    magn:    0.0050    constr:    0.0000
     atom:   48    charge:    2.1577    magn:    0.0036    constr:    0.0000
     atom:   49    charge:    1.2341    magn:   -0.0002    constr:    0.0000
     atom:   50    charge:    1.2901    magn:    0.0164    constr:    0.0000

     total cpu time spent up to now is     1251.0 secs

     total energy              =   -3005.26071581 Ry
     Harris-Foulkes estimate   =   -3012.81315304 Ry
     estimated scf accuracy    <     987.88501074 Ry

     total magnetization       =     0.06 Bohr mag/cell
     absolute magnetization    =     0.16 Bohr mag/cell

     iteration # 12     ecut=    29.40 Ry     beta=0.05
     Davidson diagonalization with overlap
     ethr =  2.94E-03,  avg # of iterations =  9.4

     negative rho (up, down):  1.521E-02 1.522E-02
 
     Adding external electric field

     Computed dipole along edir(3) : 
        Dipole               -1.6978 Ry au,         -4.3153 Debye
        Dipole field         -0.0032 Ry au
 
        Potential amp.        0.2970 Ry
        Total length         46.3494 bohr
 
 
     Adding external electric field

     Computed dipole along edir(3) : 
        Dipole               -1.6978 Ry au,         -4.3153 Debye
        Dipole field         -0.0032 Ry au
 
        Potential amp.        0.2970 Ry
        Total length         46.3494 bohr
 
 
     Magnetic moment per site:
     atom:    1    charge:    3.0993    magn:    0.0002    constr:    0.0000
     atom:    2    charge:    3.1065    magn:    0.0006    constr:    0.0000
     atom:    3    charge:    2.1296    magn:    0.0005    constr:    0.0000
     atom:    4    charge:    2.1442    magn:    0.0001    constr:    0.0000
     atom:    5    charge:    2.1343    magn:   -0.0000    constr:    0.0000
     atom:    6    charge:    2.1345    magn:    0.0000    constr:    0.0000
     atom:    7    charge:    3.1046    magn:    0.0001    constr:    0.0000
     atom:    8    charge:    3.1094    magn:    0.0002    constr:    0.0000
     atom:    9    charge:    2.1350    magn:   -0.0000    constr:    0.0000
     atom:   10    charge:    2.1361    magn:   -0.0002    constr:    0.0000
     atom:   11    charge:    2.1325    magn:    0.0000    constr:    0.0000
     atom:   12    charge:    2.1327    magn:    0.0000    constr:    0.0000
     atom:   13    charge:    3.1107    magn:    0.0001    constr:    0.0000
     atom:   14    charge:    3.1095    magn:    0.0002    constr:    0.0000
     atom:   15    charge:    2.1378    magn:   -0.0001    constr:    0.0000
     atom:   16    charge:    2.1423    magn:   -0.0001    constr:    0.0000
     atom:   17    charge:    2.1391    magn:   -0.0000    constr:    0.0000
     atom:   18    charge:    2.1384    magn:    0.0000    constr:    0.0000
     atom:   19    charge:    3.1049    magn:   -0.0001    constr:    0.0000
     atom:   20    charge:    3.0938    magn:   -0.0002    constr:    0.0000
     atom:   21    charge:    2.1573    magn:    0.0151    constr:    0.0000
     atom:   22    charge:    2.1351    magn:   -0.0001    constr:    0.0000
     atom:   23    charge:    2.1646    magn:    0.0052    constr:    0.0000
     atom:   24    charge:    2.1635    magn:    0.0051    constr:    0.0000
     atom:   25    charge:    3.0994    magn:    0.0004    constr:    0.0000
     atom:   26    charge:    3.1064    magn:    0.0009    constr:    0.0000
     atom:   27    charge:    2.1296    magn:    0.0005    constr:    0.0000
     atom:   28    charge:    2.1444    magn:    0.0001    constr:    0.0000
     atom:   29    charge:    2.1344    magn:   -0.0000    constr:    0.0000
     atom:   30    charge:    2.1345    magn:   -0.0000    constr:    0.0000
     atom:   31    charge:    3.1043    magn:    0.0002    constr:    0.0000
     atom:   32    charge:    3.1093    magn:    0.0002    constr:    0.0000
     atom:   33    charge:    2.1354    magn:    0.0000    constr:    0.0000
     atom:   34    charge:    2.1362    magn:   -0.0002    constr:    0.0000
     atom:   35    charge:    2.1324    magn:    0.0000    constr:    0.0000
     atom:   36    charge:    2.1327    magn:    0.0000    constr:    0.0000
     atom:   37    charge:    3.1111    magn:    0.0001    constr:    0.0000
     atom:   38    charge:    3.1094    magn:    0.0002    constr:    0.0000
     atom:   39    charge:    2.1371    magn:   -0.0001    constr:    0.0000
     atom:   40    charge:    2.1404    magn:   -0.0001    constr:    0.0000
     atom:   41    charge:    2.1403    magn:   -0.0000    constr:    0.0000
     atom:   42    charge:    2.1388    magn:    0.0000    constr:    0.0000
     atom:   43    charge:    3.1106    magn:   -0.0001    constr:    0.0000
     atom:   44    charge:    3.0934    magn:   -0.0003    constr:    0.0000
     atom:   45    charge:    2.1582    magn:    0.0091    constr:    0.0000
     atom:   46    charge:    2.1346    magn:   -0.0000    constr:    0.0000
     atom:   47    charge:    2.1653    magn:    0.0053    constr:    0.0000
     atom:   48    charge:    2.1622    magn:    0.0037    constr:    0.0000
     atom:   49    charge:    1.2307    magn:   -0.0002    constr:    0.0000
     atom:   50    charge:    1.2909    magn:    0.0165    constr:    0.0000

     total cpu time spent up to now is     1345.6 secs

     total energy              =   -3010.25247846 Ry
     Harris-Foulkes estimate   =   -3008.07962372 Ry
     estimated scf accuracy    <     163.73264571 Ry

     total magnetization       =     0.25 Bohr mag/cell
     absolute magnetization    =     0.38 Bohr mag/cell

     iteration # 13     ecut=    29.40 Ry     beta=0.05
     Davidson diagonalization with overlap
     ethr =  2.94E-03,  avg # of iterations =  5.3

     negative rho (up, down):  1.518E-02 1.519E-02
 
     Adding external electric field

     Computed dipole along edir(3) : 
        Dipole               -2.0751 Ry au,         -5.2743 Debye
        Dipole field         -0.0039 Ry au
 
        Potential amp.        0.3630 Ry
        Total length         46.3494 bohr
 
 
     Adding external electric field

     Computed dipole along edir(3) : 
        Dipole               -2.0751 Ry au,         -5.2743 Debye
        Dipole field         -0.0039 Ry au
 
        Potential amp.        0.3630 Ry
        Total length         46.3494 bohr
 
 
     Magnetic moment per site:
     atom:    1    charge:    3.0968    magn:    0.0003    constr:    0.0000
     atom:    2    charge:    3.0993    magn:    0.0005    constr:    0.0000
     atom:    3    charge:    2.1354    magn:    0.0001    constr:    0.0000
     atom:    4    charge:    2.1506    magn:   -0.0001    constr:    0.0000
     atom:    5    charge:    2.1360    magn:   -0.0000    constr:    0.0000
     atom:    6    charge:    2.1362    magn:    0.0000    constr:    0.0000
     atom:    7    charge:    3.0979    magn:    0.0001    constr:    0.0000
     atom:    8    charge:    3.1038    magn:    0.0003    constr:    0.0000
     atom:    9    charge:    2.1355    magn:   -0.0001    constr:    0.0000
     atom:   10    charge:    2.1376    magn:   -0.0001    constr:    0.0000
     atom:   11    charge:    2.1339    magn:   -0.0000    constr:    0.0000
     atom:   12    charge:    2.1341    magn:   -0.0000    constr:    0.0000
     atom:   13    charge:    3.1111    magn:    0.0001    constr:    0.0000
     atom:   14    charge:    3.1110    magn:   -0.0004    constr:    0.0000
     atom:   15    charge:    2.1363    magn:   -0.0001    constr:    0.0000
     atom:   16    charge:    2.1397    magn:   -0.0001    constr:    0.0000
     atom:   17    charge:    2.1399    magn:    0.0001    constr:    0.0000
     atom:   18    charge:    2.1392    magn:    0.0000    constr:    0.0000
     atom:   19    charge:    3.0963    magn:    0.0007    constr:    0.0000
     atom:   20    charge:    3.0845    magn:    0.0004    constr:    0.0000
     atom:   21    charge:    2.1566    magn:    0.0153    constr:    0.0000
     atom:   22    charge:    2.1342    magn:   -0.0001    constr:    0.0000
     atom:   23    charge:    2.1610    magn:    0.0045    constr:    0.0000
     atom:   24    charge:    2.1608    magn:    0.0048    constr:    0.0000
     atom:   25    charge:    3.0971    magn:    0.0006    constr:    0.0000
     atom:   26    charge:    3.0993    magn:    0.0008    constr:    0.0000
     atom:   27    charge:    2.1353    magn:    0.0001    constr:    0.0000
     atom:   28    charge:    2.1509    magn:    0.0000    constr:    0.0000
     atom:   29    charge:    2.1360    magn:   -0.0000    constr:    0.0000
     atom:   30    charge:    2.1362    magn:   -0.0000    constr:    0.0000
     atom:   31    charge:    3.0977    magn:    0.0001    constr:    0.0000
     atom:   32    charge:    3.1036    magn:    0.0002    constr:    0.0000
     atom:   33    charge:    2.1361    magn:   -0.0001    constr:    0.0000
     atom:   34    charge:    2.1377    magn:   -0.0001    constr:    0.0000
     atom:   35    charge:    2.1339    magn:   -0.0000    constr:    0.0000
     atom:   36    charge:    2.1341    magn:   -0.0000    constr:    0.0000
     atom:   37    charge:    3.1117    magn:    0.0001    constr:    0.0000
     atom:   38    charge:    3.1108    magn:   -0.0005    constr:    0.0000
     atom:   39    charge:    2.1357    magn:   -0.0001    constr:    0.0000
     atom:   40    charge:    2.1387    magn:   -0.0001    constr:    0.0000
     atom:   41    charge:    2.1410    magn:    0.0000    constr:    0.0000
     atom:   42    charge:    2.1396    magn:    0.0001    constr:    0.0000
     atom:   43    charge:    3.0980    magn:    0.0005    constr:    0.0000
     atom:   44    charge:    3.0840    magn:    0.0003    constr:    0.0000
[...]
             -0.458329941934033E+02
              0.706158859493198E+01
             -0.790946796119130E+02
              0.432485189910670E+02
             -0.268628663409289E+02
             -0.103508907661431E+02
             -0.122538584026470E+02
              0.926948987408597E+01
             -0.109064527049181E+02
              0.181288188825171E+02
             -0.352110424523920E+02
              0.227885310683375E+02
              0.257210701293710E+02
              0.773294569983679E+01
              0.592371527485923E+01
              0.130180278687846E+02
              0.537778640901766E+01
              0.186490761900483E+02
             -0.449509121638255E+01
             -0.429986006560667E+02
              0.621278117422574E+01
             -0.169933609032851E+02
             -0.264863633714580E+01
              0.332474509685164E+02
             -0.504205513007259E+02
              0.733988862716870E+00
              0.159013693683357E+01
              0.578991349141535E+01
              0.201329384957623E+02
             -0.806133358366791E+01
              0.532209316853912E+02
              0.272060648523690E+02
             -0.105334344081958E+02
             -0.588963232992592E+01
              0.247092696291028E+01
              0.493512513902725E+02
             -0.336461773247768E+02
             -0.647176575046130E+02
              0.182066775117629E+02
             -0.700347409136455E+01
             -0.858134680488027E+01
              0.116816502766958E+02
              0.492965080534105E+02
              0.284941151335943E+02
             -0.106503605212812E+02
             -0.328622567712259E+02
             -0.553158941411137E+01
              0.182731858660824E+02
             -0.944287189432652E+01
             -0.472611803159188E+02
             -0.339382799478562E+01
             -0.600312760796282E+02
             -0.318656874531561E+02
              0.522501837208529E+02
             -0.326367115456964E+02
             -0.433844920258682E+02
             -0.326262127686316E+02
             -0.232197168007075E+02
              0.215332924975566E+02
              0.532912537593050E+02
             -0.438023750899055E+01
              0.171925041200832E+02
             -0.120982088810169E+02
             -0.438670502485785E+02
              0.304199936299263E+02
             -0.298163853777223E+02
              0.168591378550367E+02
              0.211555578264810E+02
             -0.723205336152384E+01
              0.248644219260122E+02
              0.261129633759743E+02
              0.717614810499991E+02
             -0.782117138696913E+01
             -0.321370642162825E+02
             -0.408216705240255E+02
             -0.108231887279337E+02
             -0.203246310098232E+02
              0.612339594482413E+02
             -0.277199742190215E+02
              0.667380133703521E+01
              0.325724776539866E+01
             -0.143223701889130E+02
             -0.528853381061460E+02
             -0.418933291197300E+01
              0.625084959168629E+02
              0.101902252902981E+02
              0.464742935164816E+01
             -0.357555936542684E+02
             -0.370313894552301E+02
             -0.869715165770135E+01
              0.294568334676144E+02
             -0.152882082333550E+02
              0.658528086562749E+02
             -0.289044983479090E+02
              0.117046379404104E+02
             -0.107709877857818E+02
             -0.417990807436744E+02
              0.321323263547680E+01
             -0.337200831781441E+02
             -0.472018092562996E+02
              0.640984982621308E+01
              0.130163779728497E+01
              0.321270769408948E+02
              0.149621175276452E+02
             -0.214961533269776E+02
              0.144411102970146E+02
             -0.543032017744982E+02
             -0.319961695864313E+02
              0.580243876358707E+02
              0.600184066501090E+01
             -0.628571002196077E+01
             -0.185506903178738E+02
             -0.205923895531930E+01
             -0.611176334131255E+01
              0.559744625539152E+02
              0.259640177494337E+02
             -0.731434012022652E+01
             -0.240430202829884E+01
             -0.249224141666599E+02
             -0.110959410054094E+02
             -0.409278041569486E+02
              0.306857924428963E+02
              0.461321571485323E+01
              0.685727315618340E+01
              0.108388281202737E+02
             -0.553752751706551E+01
             -0.127087114874036E+02
              0.223199444997141E+01
             -0.688370709403413E+02
             -0.954203386659549E+01
             -0.570224614511829E+01
             -0.467376208497750E+01
              0.327818044792594E+02
              0.404215526813734E+02
              0.107357107832777E+02
             -0.600008798885766E+02
              0.404218666894752E+02
             -0.136219795822797E+02
             -0.241123416209153E+02
             -0.554682443153774E+02
             -0.191268664186377E+02
              0.389409635308269E+02
              0.189385268007671E+02
              0.660726277667510E+01
              0.206543570262693E+02
             -0.360667306579111E+02
             -0.298512678494333E+02
              0.365279140575770E+02
              0.252496674896555E+02
              0.314581439764315E+02
              0.205469057635635E+01
              0.514369967798973E+01
              0.347742054031435E+02
              0.626961525299804E+02
             -0.137325430937456E+02
              0.248508542749192E+02
             -0.146158136417263E+02
             -0.270275510967547E+02
             -0.219119439523225E+02
             -0.205255259664311E+02
             -0.880789212272725E+01
             -0.317045727084683E+02
             -0.133527906162417E+02
             -0.859529676422836E+02
              0.204057503523665E+02
              0.146590163173944E+02
             -0.244750420924041E+01
             -0.252451222974303E+02
             -0.131829981795670E+02
             -0.347459962323968E+02
              0.559104623711073E+01
              0.512318732321865E+02
             -0.126631807830237E+02
             -0.109261923422276E+02
              0.134011625597380E+02
             -0.312292835125647E+02
              0.546718229024240E+02
              0.969323435048629E+01
              0.828488466906981E+01
              0.326630527050614E+02
             -0.105866168529957E+01
              0.362397977947768E+02
              0.112722222617840E+02
             -0.308941402824212E+01
              0.671682057712235E+01
             -0.315023400061173E+01
              0.431507503210091E+02
              0.540307563310802E+01
              0.113743356374282E+02
             -0.584536999038738E+01
              0.795094768888760E+01
             -0.588627167227555E+02
             -0.230404522605309E+02
             -0.304785397349698E+02
              0.320795261327713E+02
             -0.202777273503359E+02
             -0.385279576054757E+02
              0.378104234396481E+02
             -0.784159082065678E+01
              0.268115037286807E+02
             -0.578152639130270E+02
              0.132109421260754E+02
              0.403654723730244E+01
              0.397294216828118E+01
             -0.671218055062479E+01
             -0.419291128688150E+01
              0.314718670671514E+02
              0.661832806639211E+00
             -0.324086136893799E+02
             -0.114849821747711E+02
              0.145508407147796E+02
             -0.732590568312845E+02
             -0.569882571907582E+02
              0.667933927280330E+00
              0.866094805985618E+01
             -0.293069715313467E+02
             -0.942157412621071E+00
              0.671306375642694E+02
              0.198696512237039E+02
             -0.348741778107620E+02
              0.582427400005383E+01
             -0.657492511541381E+01
              0.703525171171660E+01
             -0.221059006319319E+02
              0.133981633578023E+02
              0.166773770298361E+02
             -0.480797183997674E+01
              0.714615990842629E+02
             -0.484272688041649E+01
             -0.206556654396639E+02
              0.156884715517231E+02
              0.267644816625127E+02
             -0.215716866546010E+02
             -0.134151949856967E+01
              0.614726097682424E+02
             -0.120863225228953E+01
              0.359640122011885E+02
              0.941992354044183E+01
             -0.516846295004221E+01
             -0.139473633284690E+02
              0.338956370377760E+02
             -0.367205273606309E+02
             -0.994792907959663E+00
             -0.111782009279004E+02
             -0.260791014710429E+02
              0.925143362805356E+01
              0.156092279635704E+02
              0.303224791471303E+01
             -0.777551076304746E+00
             -0.255444219236711E+02
              0.109588791161777E+02
             -0.100052234741803E+01
             -0.153138926193807E+02
             -0.129207755763715E+02
              0.118113772041056E+02
             -0.145546419717522E+01
             -0.237906895629837E+02
             -0.677938568859451E+02
              0.522029230382496E+01
              0.123060122022288E+02
             -0.303602461383263E+02
             -0.147501244725865E+02
              0.521121916503605E+02
              0.636158704855548E+01
              0.249022869857733E+02
              0.501505156417885E+01
              0.245885236419176E+02
              0.249819171654889E+01
             -0.252197756227061E+02
             -0.477411415839663E+01
              0.430381159784517E+01
              0.190490934208807E+02
              0.492898100743039E+02
              0.314209183909853E+02
              0.186997688654770E+01
              0.958669846184080E+01
              0.386376206348820E+02
              0.172572799276788E+02
             -0.452684270402942E+02
             -0.175323164944105E+02
              0.753300809404197E+01
              0.574883308676726E+01
              0.162556372755723E+02
             -0.330540607115675E+02
              0.591050304968480E+01
              0.258568795651638E+02
              0.312117225471799E+02
             -0.280676375048648E+02
             -0.475811099752775E+00
             -0.175520918121913E+01
             -0.108270444190210E+02
             -0.190377409807411E+02
             -0.102404525108803E+02
             -0.481712506544751E+01
              0.590162420075387E+01
              0.263774372291921E+02
             -0.202595100687200E+02
              0.508316786151753E+02
              0.222996062468450E+02
              0.163332113653072E+02
              0.221881528310664E+02
              0.175662822064013E+02
              0.217657369881215E+02
              0.346330931252085E+02
             -0.289803850394138E+02
              0.397362563862306E+02
             -0.716707212248964E+02
              0.199529110915618E+02
             -0.680393488453540E+02
              0.527671679776778E+02
              0.476275397677633E+02
             -0.654964594167274E+01
             -0.307137670513975E+02
             -0.271022810289907E+02
             -0.355616173223295E+02
             -0.405503812533447E+02
              0.359356735126589E+02
              0.268589904302360E+02
              0.155385718288736E+02
              0.184297525691028E+02
              0.272062253543646E+02
             -0.252822310761074E+02
             -0.116091232071895E+02
              0.349179641669242E+02
             -0.748131246130075E+01
              0.327064998579136E+02
              0.474300223191036E+02
             -0.281601154762943E+01
             -0.465010885391527E+02
              0.176815175684976E+01
             -0.383413685949550E+00
             -0.645422045740315E+01
              0.130823172193607E+01
             -0.417617402276956E+02
             -0.881042291275021E+01
              0.591929797692489E+01
              0.706142382150082E+01
              0.313942008482717E+02
             -0.261047748917222E+02
              0.358864615102655E+02
             -0.252857695060008E+02
              0.157764461201536E+02
              0.259283661803739E+02
 
 BEEF-vdW xc energy contributions
           1 :   -473.088928173815     
           2 :    415.781109069028     
           3 :   -322.309525208903     
           4 :    222.506969514656     
           5 :   -140.226328482531     
           6 :    85.3150893676705     
           7 :   -54.4861589682048     
           8 :    37.9177149471253     
           9 :   -26.3238735610446     
          10 :    14.8189956408711     
          11 :   -2.83438899838859     
          12 :   -8.29134671112570     
          13 :    17.5280395993802     
          14 :   -24.8198830193373     
          15 :    30.6071255831732     
          16 :   -35.1740357857891     
          17 :    38.3854452161460     
          18 :   -39.8437330008001     
          19 :    39.2231139511562     
          20 :   -36.5227120813282     
          21 :    32.0888329594756     
          22 :   -26.4815004856574     
          23 :    20.3284526823772     
          24 :   -14.2067986201467     
          25 :    8.51935174934459     
          26 :   -3.40551757816138     
          27 :   -1.22429762594038     
          28 :    5.53400210531186     
          29 :   -9.59277013484666     
          30 :    13.2885661731492     
          31 :   -52.7996896920133     
          32 :   -35.8384465922055     

     Forces acting on atoms (Ry/au):


     negative rho (up, down):  1.141E-02 1.141E-02
     atom    1 type  1   force =     0.00009367   -0.00010107    0.14851531
     atom    2 type  1   force =    -0.00008381   -0.00032400   -0.17034742
     atom    3 type  2   force =     0.00004380    0.00004008   -0.05966279
     atom    4 type  2   force =     0.00001947   -0.00018903    0.04199812
     atom    5 type  2   force =    -0.02736456    0.00026193    0.00437914
     atom    6 type  2   force =     0.02730871    0.00081587    0.00412648
     atom    7 type  1   force =    -0.00007077   -0.00062261   -0.00076761
     atom    8 type  1   force =     0.00003628   -0.00000802    0.00074227
     atom    9 type  2   force =     0.00007066   -0.00004018    0.00086365
     atom   10 type  2   force =    -0.00013987   -0.00001793   -0.00036209
     atom   11 type  2   force =     0.00082132    0.00009014   -0.00060166
     atom   12 type  2   force =    -0.00121608    0.00014505   -0.00051738
     atom   13 type  1   force =     0.00030436   -0.00006657   -0.00029715
     atom   14 type  1   force =     0.00030495   -0.00037876   -0.00038849
     atom   15 type  2   force =    -0.00004850    0.00002145    0.00045242
     atom   16 type  2   force =    -0.00012373   -0.00000323   -0.00045639
     atom   17 type  2   force =    -0.00039860    0.00028934   -0.00036125
     atom   18 type  2   force =     0.00033344    0.00019160   -0.00024073
     atom   19 type  1   force =     0.00020209   -0.00004871   -0.00097789
     atom   20 type  1   force =    -0.00000848   -0.00003060   -0.00068424
     atom   21 type  2   force =     0.00006705    0.00005046    0.10064691
     atom   22 type  2   force =    -0.00005042   -0.00006645    0.00047567
     atom   23 type  2   force =    -0.07228857   -0.00014002   -0.03428971
     atom   24 type  2   force =     0.07221200    0.00032324   -0.03432898
     atom   25 type  1   force =     0.00009055   -0.00010242    0.14853738
     atom   26 type  1   force =    -0.00008379    0.00012394   -0.17035013
     atom   27 type  2   force =     0.00005829    0.00005881   -0.05972596
     atom   28 type  2   force =     0.00002487   -0.00019403    0.04219156
     atom   29 type  2   force =    -0.02735625   -0.00003996    0.00439438
     atom   30 type  2   force =     0.02729844    0.00044504    0.00414314
     atom   31 type  1   force =    -0.00007145   -0.00054250   -0.00003453
     atom   32 type  1   force =     0.00003399   -0.00008143    0.00074909
     atom   33 type  2   force =     0.00000072    0.00002146   -0.00010808
     atom   34 type  2   force =    -0.00008906    0.00000512   -0.00022071
     atom   35 type  2   force =     0.00084012   -0.00010198   -0.00056697
     atom   36 type  2   force =    -0.00123399   -0.00015316   -0.00047774
     atom   37 type  1   force =     0.00032608    0.00001921   -0.00061625
     atom   38 type  1   force =     0.00030353    0.00034795   -0.00040227
     atom   39 type  2   force =     0.00004747    0.00001552   -0.00000650
     atom   40 type  2   force =    -0.00015696   -0.00000994    0.00138810
     atom   41 type  2   force =    -0.00035033   -0.00027900   -0.00038821
     atom   42 type  2   force =     0.00028028   -0.00016935   -0.00027614
     atom   43 type  1   force =     0.00018238    0.00011134    0.00085499
     atom   44 type  1   force =    -0.00000534    0.00001529   -0.00067639
     atom   45 type  2   force =     0.00006598    0.00005123    0.10067921
     atom   46 type  2   force =     0.00018484    0.00004385    0.00065277
     atom   47 type  2   force =    -0.07228820   -0.00016180   -0.03428856
     atom   48 type  2   force =     0.07221145    0.00030000   -0.03432910
     atom   49 type  3   force =     0.00026688   -0.00004433    0.00188309
     atom   50 type  4   force =    -0.00060490    0.00012915   -0.00092236

     Total force =     0.402204     Total SCF correction =     0.000434
 !ASE

     Writing output data file calc.save
 
     init_run     :     45.22s CPU     45.83s WALL (       1 calls)
     electrons    :   4043.48s CPU   4105.27s WALL (       1 calls)
     forces       :     29.05s CPU     31.97s WALL (       1 calls)

     Called by init_run:
     wfcinit      :     35.39s CPU     35.69s WALL (       1 calls)
     potinit      :      2.26s CPU      2.36s WALL (       1 calls)

     Called by electrons:
     c_bands      :   3187.47s CPU   3224.71s WALL (      51 calls)
     sum_band     :    589.59s CPU    609.29s WALL (      51 calls)
     v_of_rho     :     38.09s CPU     40.27s WALL (      52 calls)
     newd         :    210.80s CPU    211.24s WALL (      52 calls)
     mix_rho      :      2.15s CPU      2.26s WALL (      51 calls)
     vdW_energy   :      7.26s CPU      8.04s WALL (      87 calls)
     vdW_ffts     :     17.97s CPU     19.09s WALL (     174 calls)
     vdW_v        :      6.50s CPU      6.64s WALL (      87 calls)

     Called by c_bands:
     init_us_2    :     13.55s CPU     13.68s WALL (    2080 calls)
     cegterg      :   3108.12s CPU   3145.29s WALL (    1020 calls)

     Called by *egterg:
     h_psi        :   1287.20s CPU   1293.05s WALL (    6426 calls)
     s_psi        :    235.61s CPU    235.84s WALL (    6426 calls)
     g_psi        :      3.15s CPU      3.14s WALL (    5386 calls)
     cdiaghg      :   1081.32s CPU   1081.33s WALL (    6406 calls)

     Called by h_psi:
     add_vuspsi   :    238.48s CPU    238.55s WALL (    6426 calls)

     General routines
     calbec       :    348.71s CPU    352.44s WALL (    7466 calls)
     fft          :     40.39s CPU     42.66s WALL (    6447 calls)
     ffts         :      0.31s CPU      0.31s WALL (     206 calls)
     fftw         :   1001.86s CPU   1020.92s WALL ( 1273298 calls)
     interpolate  :      1.39s CPU      1.45s WALL (     206 calls)
     davcio       :      0.01s CPU      6.87s WALL (      20 calls)
 
     Parallel routines
     fft_scatter  :    415.86s CPU    429.91s WALL ( 1279951 calls)
 
     PWSCF        :     1h 8m CPU        1h 9m WALL

 
   This run was terminated on:  15:51:27   4Feb2018            

=------------------------------------------------------------------------------=
   JOB DONE.
=------------------------------------------------------------------------------=
